<?xml version="1.0"?>
<VTKFile type="UnstructuredGrid"  version="0.1"  >
<UnstructuredGrid>
<Piece  NumberOfPoints="589" NumberOfCells="1080">
<Points>
<DataArray  type="Float64"  NumberOfComponents="3"  format="ascii">-9 0 0  -8 0 0  -7 0 0  -6 0 0  -5 0 0  -4 0 0  -3 0 0  -2 0 0  -1 0 0  0 0 0  1 0 0  2 0 0  3 0 0  4 0 0  5 0 0  6 0 0  7 0 0  8 0 0  9 0 0  -9 2 0  -8.000006100694383 1.999990304347829 0  -7.000012823253417 1.999981844219282 0  -6.000021653254382 1.999975628052738 0  -5.000036004947218 1.9999721134303 0  -4.00002082606589 1.999979002891984 0  -3.000005232990483 1.999985766666827 0  -1.999997723963303 1.999992209922384 0  -0.9999966825324481 1.999997296551044 0  3.363484067233875e-07 1.999999485013063 0  0.9999971320490639 1.999997813965668 0  1.999997420262586 1.999992639344607 0  3.000003720510521 1.999986272356818 0  4.000016874933055 1.99997935279037 0  5.000036088845307 1.999976162741939 0  6.000021996437982 1.999977320721773 0  7.000013175161939 1.9999825705807 0  8.000006314789562 1.999990582268334 0  9 2 0  -9.000000000004983 4 0  -8.000009713823191 3.9999756671472 0  -7.000017216787461 3.999954712992645 0  -6.000021219689017 3.999940450150082 0  -5.000022005365614 3.999936041778126 0  -3.999999551473773 3.999939154102169 0  -2.999984547488486 3.999958509301327 0  -1.999980816782386 3.999983801395661 0  -0.999986872170512 4.00000414977325 0  1.762496949788266e-06 4.000012232776439 0  0.9999902081946881 4.00000545542558 0  1.999983533969108 3.999987526456927 0  2.999986834952938 3.999963238266992 0  4.000001690627032 3.999938593860499 0  5.000024385430777 3.999929616857709 0  6.000022908198787 3.999938274353218 0  7.00001850652197 3.99995409451453 0  8.000010446972084 3.999975541046881 0  9 4 0  -9 6 0  -8.000022169698287 5.999947517914089 0  -7.00003561052511 5.999900819087795 0  -6.000033654975631 5.999865856875351 0  -5.000014373464548 5.999848358149363 0  -3.999970083984334 5.999877017941339 0  -2.999949975790639 5.999937357447689 0  -1.999957989773539 6.000000721699643 0  -0.9999779989817914 6.000036027888456 0  1.623671871719663e-06 6.000042991303904 0  0.99998317815268 6.000031176702802 0  1.999969060686785 5.999998698975343 0  2.999963792028116 5.999943835025411 0  3.999974548285162 5.999886739185226 0  5.000013135513658 5.999857876976817 0  6.000035517711535 5.999870579830015 0  7.000038468544795 5.999903115870267 0  8.000024127627922 5.999948452913838 0  9 6 0  -9 8 0  -8.000069533040518 7.999896246638192 0  -7.000115584805199 7.999799992639374 0  -6.000115390993516 7.999721423518979 0  -5.000049421308187 7.999677323831074 0  -3.999963577546883 7.999810613302142 0  -2.999978871141173 7.999967491582561 0  -2.000010704977894 8.000044316900517 0  -1.00001338451434 8.000053532917303 0  5.659191830601884e-06 8.000056298007566 0  1.000019661473827 8.000064091940052 0  2.000013229523812 8.000031063204425 0  2.999974997281293 7.999974952762085 0  3.999961900565922 7.999836618822435 0  5.000047691089571 7.999680577332478 0  6.000125842502373 7.99972357240609 0  7.000127585671946 7.999800948492332 0  8.000076944835742 7.999896536212436 0  9 8 0  -9 10 0  -8.000210756555816 9.999815030290382 0  -7.000380471146019 9.999628508090147 0  -6.000460162906371 9.999439246615797 0  -5.000381583658188 9.999246925425544 0  -4.000245644675934 9.99967697383167 0  -3.000266906237579 10.00004708544005 0  -2.000211464782943 9.999984760292479 0  -1.000092132240425 9.999964761552144 0  -3.774871250517533e-06 9.999959861975517 0  1.0000842176538 9.999960078871979 0  2.00020193036636 9.999957128018163 0  3.000304738538058 10.00009255732735 0  4.000290929299725 9.999731696074573 0  5.000449254094255 9.999255719453934 0  6.000521654977028 9.999439153676141 0  7.00042614663518 9.999625997743783 0  8.00023491745813 9.99981315535585 0  9 10 0  -9 12 0  -8.000515847369309 11.99974013555617 0  -7.001004957302422 11.99946816905035 0  -6.001437068264908 11.99916963672539 0  -5.001774581462401 11.99882438974746 0  -4.001704893384141 11.99960771477544 0  -3.00176640292013 12.00038307612406 0  -2.001198463945326 12.00029174481172 0  -1.000568742925004 12.00024355321922 0  8.373955518267671e-05 12.00023648738014 0  1.000741289717947 12.0002723844922 0  2.001388554136276 12.00036103282911 0  3.001995033369985 12.0005267069478 0  4.001925587032929 11.9996585950792 0  5.001972760715223 11.99878315335945 0  6.001588382481994 11.99914135740562 0  7.001107228980019 11.99944995356233 0  8.000567421368075 11.99973112603791 0  9 12 0  -9 14 0  -8.000927268616197 13.99971377506846 0  -7.001856446828172 13.99941431149559 0  -6.002790665311165 13.99908720435735 0  -5.003736213111213 13.99871576082953 0  -4.003745777646589 13.99962981003862 0  -3.003750119501662 14.00055527788351 0  -2.00243376310181 14.00042640318725 0  -1.001136891599152 14.00035804841642 0  0.0001511761268378385 14.00034145484261 0  1.001440485390293 14.00037392825139 0  2.002740140700782 14.0004571861057 0  3.004056944148524 14.00059569029389 0  4.004065933765796 13.99962453914107 0  5.00407384166266 13.99865910754814 0  6.00304062190991 13.9990425139368 0  7.002021995232078 13.99938391667125 0  8.001009797533802 13.99969846248759 0  9 14 0  -9 16 0  -8.001330208022507 15.99974045284082 0  -7.002686383792595 15.99947120594749 0  -6.004096702109787 15.99918238551631 0  -5.005593854636085 15.99886392606375 0  -4.005647436497314 15.99964044537477 0  -3.005595494989833 16.00041265220572 0  -2.003593331656178 16.0003196740771 0  -1.001670769039588 16.00026605892564 0  0.0002137320819861882 16.00025066359755 0  1.002099400404477 16.00027283901111 0  2.004025415117804 16.00033286123349 0  3.006033397112231 16.0004317331168 0  4.006090196875148 15.99959925343305 0  5.00604123975652 15.99876596819301 0  6.004431791201724 15.99911204650918 0  7.002909406122653 15.99942556034998 0  8.001441591476189 15.99971796656439 0  9 16 0  -9 18 0  -8.001628384821792 17.99980595159654 0  -7.00329815495944 17.99960648331815 0  -6.00505283073642 17.99939626717963 0  -5.006940190883794 17.99917018275577 0  -4.007021399820533 17.99964211856996 0  -3.00694189832783 18.00011324473051 0  -2.00443734890812 18.00005607233915 0  -1.002053713034607 18.00002178975864 0  0.0002716133049891434 18.00001018392642 0  1.002598214088205 18.00002094641914 0  2.004985591653366 18.00005370003354 0  3.007496076160445 18.00010788424223 0  4.007579787416756 17.99958018291761 0  5.007500634561847 17.9990537782102 0  6.005471606998481 17.99931207285734 0  7.003576582486468 17.99955178025406 0  8.001767371517595 17.99977901633542 0  9 18 0  -9 20 0  -8.001760196766647 19.99989311687479 0  -7.003568666786611 19.99978477579745 0  -6.005475527824342 19.99967367524428 0  -5.007534589751586 19.99955882209567 0  -4.007627394577701 19.99964112651904 0  -3.007534616320446 19.99972255032124 0  -2.004800953128688 19.99970134080672 0  -1.002204939119034 19.99968725019635 0  0.0003243708758383592 19.99968067517096 0  1.002855377078039 19.99968152107817 0  2.005456474688644 19.99968921924828 0  3.008198606660749 19.99970268305334 0  4.008293706892745 19.99957046953551 0  5.008200389192342 19.99943910590044 0  6.00597220742039 19.99958651841479 0  7.003898525511965 19.99972792046039 0  8.001924750537107 19.99986506328098 0  8.999999999983563 19.99999999999612 0  -9 22 0  -8.001698148741649 21.99998610038748 0  -7.003443977318184 21.99997410657151 0  -6.005286674445857 21.99996610325196 0  -5.007278434461711 21.99996453708122 0  -4.007369283905777 21.99963642686004 0  -3.007278082665234 21.99930735678768 0  -2.004617270519033 21.99931827991446 0  -1.002090896208221 21.99932280869447 0  0.0003703660830597579 21.99932164444287 0  1.002833767100468 21.99931483829603 0  2.005366577142248 21.99930180361346 0  3.008038184236479 21.99928130387268 0  4.008130369520704 21.99956716625139 0  5.008036599099499 21.99985345272582 0  6.005851723337544 21.99988499636786 0  7.003818981783391 21.99992108003071 0  8.001885141719077 21.99995990023777 0  9 22 0  -9 24 0  -8.001444582403478 24.00007146477472 0  -7.002930124830261 24.00014748036189 0  -6.00449875765718 24.00023278495703 0  -5.006194877649568 24.00033250065591 0  -4.006273010582319 23.99962826539289 0  -3.006195117469099 23.99892315058279 0  -2.003899071087664 23.99896066863619 0  -1.001717891087822 23.99898102007505 0  0.0004078981460274978 23.99898506222255 0  1.002536200798155 23.99897294310016 0  2.004724952166744 23.99894410501877 0  3.0070337235129 23.9988972796176 0  4.007111494954199 23.99956869702977 0  5.007028625651475 24.00024029223228 0  6.005119750712978 24.00016528988946 0  7.003342072860529 24.00010327401491 0  8.001649939133832 24.00004959873421 0  9 24 0  -9 26 0  -8.001026253076427 26.00013864609989 0  -7.00208210093683 26.00028371742169 0  -6.003197964496941 26.00044183089729 0  -5.004405767384305 26.00061999799421 0  -4.004462952215209 25.99961716273525 0  -3.004407254272417 25.99861361149229 0  -2.002724536850729 25.99867142697317 0  -1.001124740452132 25.99870417470058 0  0.0004355149232678154 25.99871282905717 0  1.001998549213202 25.99869762151543 0  2.003606717578801 25.99865804197206 0  3.00530350339955 25.99859283652102 0  4.005358259570106 25.9995735561644 0  5.005295005776666 26.00055426258934 0  6.00386007549602 26.00039362929035 0  7.002521222786631 26.0002521065017 0  8.00124512514398 26.00012299735178 0  9 26 0  -9 28 0  -8.000488465438139 28.0001801488378 0  -7.000992054294048 28.0003678037119 0  -6.001526353939973 28.0005706666262 0  -5.002107674299054 28.00079683719704 0  -4.002138277938186 27.99960410084008 0  -3.002110642448074 27.99841091426493 0  -2.001221394808577 27.99848214145333 0  -1.000374818924834 27.99852338554225 0  0.0004521527779681368 27.99853572195318 0  1.001282045513987 27.9985194606008 0  2.002137417729186 27.99847414672542 0  3.00304143708875 27.99839855946533 0  4.003067602223113 27.99958064381681 0  5.003030117841835 28.00076262480852 0  6.002213110025355 28.00054553847522 0  7.00144748534636 28.00035130372124 0  8.000715458
[...]
<PointData  Vectors="f_44-2"> 
<DataArray  type="Float64"  Name="f_44-2"  NumberOfComponents="3" format="ascii">0.0000000000000000e+00 0.0000000000000000e+00 0.0000000000000000e+00  0.0000000000000000e+00 0.0000000000000000e+00 0.0000000000000000e+00  0.0000000000000000e+00 0.0000000000000000e+00 0.0000000000000000e+00  0.0000000000000000e+00 0.0000000000000000e+00 0.0000000000000000e+00  0.0000000000000000e+00 0.0000000000000000e+00 0.0000000000000000e+00  0.0000000000000000e+00 0.0000000000000000e+00 0.0000000000000000e+00  0.0000000000000000e+00 0.0000000000000000e+00 0.0000000000000000e+00  0.0000000000000000e+00 0.0000000000000000e+00 0.0000000000000000e+00  0.0000000000000000e+00 0.0000000000000000e+00 0.0000000000000000e+00  0.0000000000000000e+00 0.0000000000000000e+00 0.0000000000000000e+00  0.0000000000000000e+00 0.0000000000000000e+00 0.0000000000000000e+00  0.0000000000000000e+00 0.0000000000000000e+00 0.0000000000000000e+00  0.0000000000000000e+00 0.0000000000000000e+00 0.0000000000000000e+00  0.0000000000000000e+00 0.0000000000000000e+00 0.0000000000000000e+00  0.0000000000000000e+00 0.0000000000000000e+00 0.0000000000000000e+00  0.0000000000000000e+00 0.0000000000000000e+00 0.0000000000000000e+00  0.0000000000000000e+00 0.0000000000000000e+00 0.0000000000000000e+00  0.0000000000000000e+00 0.0000000000000000e+00 0.0000000000000000e+00  0.0000000000000000e+00 0.0000000000000000e+00 0.0000000000000000e+00  0.0000000000000000e+00 0.0000000000000000e+00 0.0000000000000000e+00  4.9188090132355597e-05 7.4085573322728938e-05 0.0000000000000000e+00  1.0253205387159322e-04 1.3870649218710552e-04 0.0000000000000000e+00  1.7066988267512375e-04 1.8615033469241487e-04 0.0000000000000000e+00  2.7865094261973094e-04 2.1290430419888560e-04 0.0000000000000000e+00  1.6244371376291419e-04 1.5964923803482036e-04 0.0000000000000000e+00  4.4254270890912329e-05 1.0748232310845859e-04 0.0000000000000000e+00  -1.2057308607499383e-05 5.7762321242566036e-05 0.0000000000000000e+00  -1.8769695204763412e-05 1.8257751031138157e-05 0.0000000000000000e+00  5.7205573388897539e-06 4.2512599208017211e-07 0.0000000000000000e+00  3.3047369503584628e-05 1.1210415900568478e-05 0.0000000000000000e+00  3.5866270880343708e-05 4.7458184757131196e-05 0.0000000000000000e+00  -3.7691776088987807e-06 9.1194426488703303e-05 0.0000000000000000e+00  -9.0441603906315875e-05 1.3577791057005990e-04 0.0000000000000000e+00  -2.1574839368939541e-04 1.4724304605552880e-04 0.0000000000000000e+00  -1.2754837736090078e-04 1.4571057931270329e-04 0.0000000000000000e+00  -7.5257468696536417e-05 1.1422899823289797e-04 0.0000000000000000e+00  -3.5932314015095326e-05 6.2332546361366047e-05 0.0000000000000000e+00  0.0000000000000000e+00 0.0000000000000000e+00 0.0000000000000000e+00  0.0000000000000000e+00 0.0000000000000000e+00 0.0000000000000000e+00  8.1750874766788216e-05 1.8602157121048722e-04 0.0000000000000000e+00  1.4588919407593749e-04 3.4611521292460858e-04 0.0000000000000000e+00  1.8196618220143868e-04 4.5505682437917242e-04 0.0000000000000000e+00  1.9175313732666002e-04 4.8897312942314849e-04 0.0000000000000000e+00  2.1676711295310789e-05 4.6150533256776713e-04 0.0000000000000000e+00  -9.0646824221323014e-05 3.1166170383580406e-04 0.0000000000000000e+00  -1.1655314776022365e-04 1.1722969665940433e-04 0.0000000000000000e+00  -6.7530654790591132e-05 -3.9723971567131901e-05 0.0000000000000000e+00  2.2134846216239298e-05 -1.0421461635615022e-04 0.0000000000000000e+00  1.1399319720574783e-04 -5.8260884784303367e-05 0.0000000000000000e+00  1.7069596480681442e-04 6.8992439617498173e-05 0.0000000000000000e+00  1.5495292625303009e-04 2.4056665271191604e-04 0.0000000000000000e+00  5.5311913446410694e-05 4.1035994868751494e-04 0.0000000000000000e+00  -1.0210563064582819e-04 4.5733111010946034e-04 0.0000000000000000e+00  -1.1145929549892948e-04 4.1121231069942928e-04 0.0000000000000000e+00  -9.8650155927979715e-05 3.1010881987109481e-04 0.0000000000000000e+00  -5.8290087170148886e-05 1.6640046256627080e-04 0.0000000000000000e+00  0.0000000000000000e+00 0.0000000000000000e+00 0.0000000000000000e+00  0.0000000000000000e+00 0.0000000000000000e+00 0.0000000000000000e+00  1.8475319932928218e-04 4.0162818276357306e-04 0.0000000000000000e+00  3.0149048080837013e-04 7.5809385595803594e-04 0.0000000000000000e+00  2.9842199845387377e-04 1.0240273665928464e-03 0.0000000000000000e+00  1.6108294467833900e-04 1.1558810711013760e-03 0.0000000000000000e+00  -1.7358777447021179e-04 9.3076038559000078e-04 0.0000000000000000e+00  -3.2253387997896687e-04 4.6525025653042023e-04 0.0000000000000000e+00  -2.5470904246042286e-04 -2.1544055033308283e-05 0.0000000000000000e+00  -9.6760642377238806e-05 -2.9069825492566292e-04 0.0000000000000000e+00  6.1312840902639457e-05 -3.4523171099267016e-04 0.0000000000000000e+00  2.0283577406926103e-04 -2.6174301005417439e-04 0.0000000000000000e+00  3.1189317111741065e-04 -2.8594026482730567e-05 0.0000000000000000e+00  3.5697134986236595e-04 3.6634255683393576e-04 0.0000000000000000e+00  2.8534010311090000e-04 7.7375575751645429e-04 0.0000000000000000e+00  8.2834511389776107e-06 9.6971399869065858e-04 0.0000000000000000e+00  -1.8402027719389681e-04 8.9661735514766925e-04 0.0000000000000000e+00  -2.3223505879562219e-04 6.7636777706947353e-04 0.0000000000000000e+00  -1.5235156104034637e-04 3.6119872603807631e-04 0.0000000000000000e+00  0.0000000000000000e+00 0.0000000000000000e+00 0.0000000000000000e+00  0.0000000000000000e+00 0.0000000000000000e+00 0.0000000000000000e+00  5.5988538593639144e-04 7.9561698891005418e-04 0.0000000000000000e+00  9.3624030563638195e-04 1.5319946866558607e-03 0.0000000000000000e+00  9.5191500575061419e-04 2.1291128181981107e-03 0.0000000000000000e+00  4.5746232404111578e-04 2.4553400385878767e-03 0.0000000000000000e+00  -1.9776408659169520e-04 1.4209794891074893e-03 0.0000000000000000e+00  -6.2090699152384760e-05 2.0936785488955909e-04 0.0000000000000000e+00  1.9691167405126893e-04 -3.7399313843714058e-04 0.0000000000000000e+00  2.2463450479343709e-04 -4.3146114785866250e-04 0.0000000000000000e+00  8.0575319812927355e-05 -4.4712747868196220e-04 0.0000000000000000e+00  -2.7928665543535564e-05 -5.0767807213706966e-04 0.0000000000000000e+00  1.7477231235030827e-05 -2.7383394946526901e-04 0.0000000000000000e+00  3.0316094367796988e-04 1.2354993663870435e-04 0.0000000000000000e+00  4.0577795186095270e-04 1.1278715819792616e-03 0.0000000000000000e+00  -2.2179396574202880e-04 2.2652740138983819e-03 0.0000000000000000e+00  -8.3278777456774131e-04 1.9703493360022396e-03 0.0000000000000000e+00  -8.7804259820149625e-04 1.4220876634727993e-03 0.0000000000000000e+00  -5.3614014345813431e-04 7.3995263775764736e-04 0.0000000000000000e+00  0.0000000000000000e+00 0.0000000000000000e+00 0.0000000000000000e+00  0.0000000000000000e+00 0.0000000000000000e+00 0.0000000000000000e+00  1.6681605357778267e-03 1.4257766962947587e-03 0.0000000000000000e+00  3.0118765482547425e-03 2.8619397770099551e-03 0.0000000000000000e+00  3.6449218660145346e-03 4.3157501611730074e-03 0.0000000000000000e+00  3.0300581051418791e-03 5.7867121143154151e-03 0.0000000000000000e+00  1.9835648682318199e-03 2.4245246094702811e-03 0.0000000000000000e+00  2.1822343661252841e-03 -4.5730832395116209e-04 0.0000000000000000e+00  1.7715744423066398e-03 7.0149749536710390e-05 0.0000000000000000e+00  8.5374241586769640e-04 2.3988784322584523e-04 0.0000000000000000e+00  1.8529148170990677e-04 2.8153427361272786e-04 0.0000000000000000e+00  -4.7443225525072388e-04 2.7554683013860770e-04 0.0000000000000000e+00  -1.3517994478380398e-03 2.8317066949469001e-04 0.0000000000000000e+00  -2.1251324273092414e-03 -7.5171920857136805e-04 0.0000000000000000e+00  -2.0195301825165855e-03 1.8897701481339895e-03 0.0000000000000000e+00  -3.1759310744649879e-03 5.3884728086761582e-03 0.0000000000000000e+00  -3.7424135836475773e-03 4.0558158102708391e-03 0.0000000000000000e+00  -3.0711584984176791e-03 2.7024022569661767e-03 0.0000000000000000e+00  -1.6960183798800548e-03 1.3494097377082352e-03 0.0000000000000000e+00  0.0000000000000000e+00 0.0000000000000000e+00 0.0000000000000000e+00  0.0000000000000000e+00 0.0000000000000000e+00 0.0000000000000000e+00  4.0696570475759761e-03 2.0127014618500278e-03 0.0000000000000000e+00  7.9227494266799429e-03 4.1184402178942635e-03 0.0000000000000000e+00  1.1315155775605368e-02 6.4286137754399186e-03 0.0000000000000000e+00  1.3943728851954072e-02 9.0987290962052329e-03 0.0000000000000000e+00  1.3410136839465930e-02 2.9329788410367126e-03 0.0000000000000000e+00  1.3926532283187670e-02 -3.1715690818820107e-03 0.0000000000000000e+00  9.6908649679457934e-03 -2.4050257141163948e-03 0.0000000000000000e+00  4.9494750261129747e-03 -1.9781343075989054e-03 0.0000000000000000e+00  1.0904372001117191e-05 -1.8730152258410852e-03 0.0000000000000000e+00  -4.9885646640987309e-03 -2.1004607061445683e-03 0.0000000000000000e+00  -9.9372722682578452e-03 -2.7316817880359140e-03 0.0000000000000000e+00  -1.4616661723125403e-02 -3.9468335695829904e-03 0.0000000000000000e+00  -1.4098731025950049e-02 2.4171702347460574e-03 0.0000000000000000e+00  -1.4415528889828723e-02 8.8349646673604489e-03 0.0000000000000000e+00  -1.1592635069895541e-02 6.2205904633648532e-03 0.0000000000000000e+00  -8.0746471799660515e-03 3.9787525833560877e-03 0.0000000000000000e+00  -4.1362573952490427e-03 1.9431255580567624e-03 0.0000000000000000e+00  0.0000000000000000e+00 0.0000000000000000e+00 0.0000000000000000e+00  0.0000000000000000e+00 0.0000000000000000e+00 0.0000000000000000e+00  7.3279792474637969e-03 2.2255576508827782e-03 0.0000000000000000e+00  1.4661252201499546e-02 4.5538761089362291e-03 0.0000000000000000e+00  2.2014848701325040e-02 7.0968472776684567e-03 0.0000000000000000e+00  2.9427261050306890e-02 9.9843396700140981e-03 0.0000000000000000e+00  2.9512080759843295e-02 2.7333933665917866e-03 0.0000000000000000e+00  2.9587819164503724e-02 -4.6098302925766717e-03 0.0000000000000000e+00  1.9650870506122634e-02 -3.5251212932726397e-03 0.0000000000000000e+00  9.8417579743055768e-03 -2.9121967575337212e-03 0.0000000000000000e+00  7.8046845361151744e-05 -2.7001815201984046e-03 0.0000000000000000e+00  -9.7196069591385954e-03 -2.8648904897665495e-03 0.0000000000000000e+00  -1.9626359346252387e-02 -3.4158745432034654e-03 0.0000000000000000e+00  -2.9703506222469544e-02 -4.3835329950046515e-03 0.0000000000000000e+00  -2.9773273151365628e-02 2.6627729301631712e-03 0.0000000000000000e+00  -2.9793224283187036e-02 9.6634967074216930e-03 0.0000000000000000e+00  -2.2200538151384001e-02 6.8877970220547350e-03 0.0000000000000000e+00  -1.4746474368370576e-02 4.4258216781333827e-03 0.0000000000000000e+00  -7.3596955456238563e-03 2.1644069856887665e-03 0.0000000000000000e+00  0.0000000000000000e+00 0.0000000000000000e+00 0.0000000000000000e+00  0.0000000000000000e+00 0.0000000000000000e+00 0.0000000000000000e+00  1.0552227908303293e-02 2.0260835627066301e-03 0.0000000000000000e+00  2.1297204154435798e-02 4.1279774698850039e-03 0.0000000000000000e+00  3.2445050730109892e-02 6.3828951097640169e-03 0.0000000000000000e+00  4.4240348062702391e-02 8.8696090653442028e-03 0.0000000000000000e+00  4.4665561228801304e-02 2.6240209764784323e-03 0.0000000000000000e+00  4.4298152956019410e-02 -3.5916112141015813e-03 0.0000000000000000e+00  2.9132978854696026e-02 -2.7684576624826787e-03 0.0000000000000000e+00  1.4567084949517958e-02 -2.2509874768920708e-03 0.0000000000000000e+00  2.8038821181241923e-04 -2.0280063891271669e-03 0.0000000000000000e+00  -1.4029814588815736e-02 -2.0916524919470051e-03 0.0000000000000000e+00  -2.8666782958334327e-02 -2.4407859382046546e-03 0.0000000000000000e+00  -4.3953793340625096e-02 -3.0794706307383066e-03 0.0000000000000000e+00  -4.4381787441564589e-02 2.8410895933628755e-03 0.0000000000000000e+00  -4.3981718220166992e-02 8.7636666398473485e-03 0.0000000000000000e+00  -3.2215487957890324e-02 6.2950012378306013e-03 0.0000000000000000e+00  -2.1125861576541706e-02 4.0670842988535265e-03 0.0000000000000000e+00  -1.0460930242048697e-02 1.9951905483551291e-03 0.0000000000000000e+00  0.0000000000000000e+00 0.0000000000000000e+00 0.0000000000000000e+00  0.0000000000000000e+00 0.0000000000000000e+00 0.0000000000000000e+00  1.2991553740700388e-02 1.5229909348922546e-03 0.0000000000000000e+00  2.6296852179997336e-02 3.0888109077341595e-03 0.0000000000000000e+00  4.0246166072651961e-02 4.7395411383816116e-03 0.0000000000000000e+00  5.5202911729600040e-02 6.5157128978111803e-03 0.0000000000000000e+00  5.5840539365738601e-02 2.5807604073721712e-03 0.0000000000000000e+00  5.5253061514177020e-02 -1.3516693354312880e-03 0.0000000000000000e+00  3.6260547109676682e-02 -7.9698858772852697e-04 0.0000000000000000e+00  1.8195715734712421e-02 -4.2070981240979321e-04 0.0000000000000000e+00  5.7752296775918238e-04 -2.1810509831407917e-04 0.0000000000000000e+00  -1.7051212568088031e-02 -1.8505104147036242e-04 0.0000000000000000e+00  -3.5147084248630459e-02 -3.1571461534299821e-04 0.0000000000000000e+00  -5.4188632964657285e-02 -6.0257368432957263e-04 0.0000000000000000e+00  -5.4816087195426147e-02 2.9672570335974946e-03 0.0000000000000000e+00  -5.4199371551013148e-02 6.5236628197961975e-03 0.0000000000000000e+00  -3.9479811001654951e-02 4.7358923053204046e-03 0.0000000000000000e+00  -2.5778816977834285e-02 3.0822242332607733e-03 0.0000000000000000e+00  -1.2730376851265995e-02 1.5184183189312587e-03 0.0000000000000000e+00  0.0000000000000000e+00 0.0000000000000000e+00 0.0000000000000000e+00  0.0000000000000000e+00 0.0000000000000000e+00 0.0000000000000000e+00  1.4163248207361857e-02 8.4877766317340161e-04 0.0000000000000000e+00  2.8695386922968795e-02 1.7096443468605136e-03 0.0000000000000000e+00  4.3979398448757832e-02 2.5934388365561434e-03 0.0000000000000000e+00  6.0426357412821458e-02 3.5086454266215756e-03 0.0000000000000000e+00  6.1153689170790497e-02 2.5545704431737854e-03 0.0000000000000000e+00  6.0457262970920030e-02 1.6044109074552651e-03 0.0000000000000000e+00  3.9725950385802157e-02 1.8815915869979064e-03 0.0000000000000000e+00  2.0060483177486221e-02 2.1015922082596389e-03 0.0000000000000000e+00  9.1778765507996693e-04 2.2634651457524193e-03 0.0000000000000000e+00  -1.8224957498194885e-02 2.3701042826305124e-03 0.0000000000000000e+00  -3.7890143655933489e-02 2.4282784874623390e-03 0.0000000000000000e+00  -5.8619518831436394e-02 2.4489616899498099e-03 0.0000000000000000e+00  -5.9326931772879427e-02 3.0191711758269808e-03 0.0000000000000000e+00  -5.8614588941293691e-02 3.5802928559887496e-03 0.0000000000000000e+00  -4.2624443084154827e-02 2.6394052815072520e-03 0.0000000000000000e+00  -2.7793700988650256e-02 1.7366020923182861e-03 0.0000000000000000e+00  -1.3712855330779521e-02 8.6114277815864219e-04 0.0000000000000000e+00  7.5840386345344661e-10 0.0000000000000000e+00 0.0000000000000000e+00  0.0000000000000000e+00 0.0000000000000000e+00 0.0000000000000000e+00  1.3847649505250421e-02 1.2643189009427737e-04 0.0000000000000000e+00  2.8061457575082015e-02 2.3879421333926221e-04 0.0000000000000000e+00  4.3019033665397437e-02 3.2159854792218726e-04 0.0000000000000000e+00  5.9120718650166347e-02 3.5657521522180081e-04 0.0000000000000000e+00  5.9835588334187714e-02 2.5580950884009817e-03 0.0000000000000000e+00  5.9147106231071826e-02 4.7652748310859768e-03 0.0000000000000000e+00  3.8977304224203452e-02 4.7867193212057929e-03 0.0000000000000000e+00  1.9857334107480966e-02 4.8540292440783827e-03 0.0000000000000000e+00  1.2583222805120486e-03 4.9636162117647773e-03 0.0000000000000000e+00  -1.7331982545299260e-02 5.1169424579999654e-03 0.0000000000000000e+00  -3.6425427301309841e-02 5.3204463698453709e-03 0.0000000000000000e+00  -5.6549661702429498e-02 5.5856494206816916e-03 0.0000000000000000e+00  -5.7226720660789453e-02 3.0241443224965259e-03 0.0000000000000000e+00  -5.6519987472184473e-02 4.5795222216495486e-04 0.0000000000000000e+00  -4.1087695162492138e-02 3.9104471992245927e-04 0.0000000000000000e+00  -2.6782769358286593e-02 2.8195914153498423e-04 0.0000000000000000e+00  -1.3210882510505048e-02 1.4707091556258076e-04 0.0000000000000000e+00  0.0000000000000000e+00 0.0000000000000000e+00 0.0000000000000000e+00  0.0000000000000000e+00 0.0000000000000000e+00 0.0000000000000000e+00  1.2055318606615488e-02 -5.3966208473658537e-04 0.0000000000000000e+00  2.4426872760127595e-02 -1.1138324628381972e-03 0.0000000000000000e+00  3.7439681360091973e-02 -1.7588602633149238e-03 0.0000000000000000e+00  5.1435911603760077e-02 -2.5133759527444792e-03 0.0000000000000000e+00  5.2057808361150447e-02 2.5948566841959776e-03 0.0000000000000000e+00  5.1469585150943478e-02 7.7089154414612306e-03 0.0000000000000000e+00  3.4077232799797803e-02 7.5102284628044717e-03 0.0000000000000000e+00  1.7592437642231382e-02 7.4391026404691356e-03 0.0000000000000000e+00  1.5628905771506256e-03 7.4905793098184511e-03 0.0000000000000000e+00  -1.4450940071221090e-02 7.6649780757310658e-03 0.0000000000000000e+00  -3.0888210257934635e-02 7.9680046843239923e-03 0.0000000000000000e+00  -4.8199987346910146e-02 8.4108209704571307e-03 0.0000000000000000e+00  -4.8758753334119297e-02 2.9999531456789282e-03 0.0000000000000000e+00  -4.8140451156690175e-02 -2.4129539094892120e-03 0.0000000000000000e+00  -3.4999419425554019e-02 -1.6883263719395800e-03 0.0000000000000000e+00  -2.2814653361810308e-02 -1.0692567588711241e-03 0.0000000000000000e+00  -1.1253521014851518e-02 -5.1803441712904529e-04 0.0000000000000000e+00  0.0000000000000000e+00 0.0000000000000000e+00 0.0000000000000000e+00  0.0000000000000000e+00 0.0000000000000000e+00 0.0000000000000000e+00  8.9845897724511146e-03 -1.0679825641839444e-03 0.0000000000000000e+00  1.8199655149848525e-02 -2.1849431277579379e-03 0.0000000000000000e+00  2.7882286027591189e-02 -3.4013541625394065e-03 0.0000000000000000e+00  3.8280878998215695e-02 -4.7700697547960408e-03 0.0000000000000000e+00  3.8747759896947315e-02 2.6645322336196955e-03 0.0000000000000000e+00  3.8328840257679256e-02 1.0103821387785350e-02 0.0000000000000000e+00  2.5593261944763152e-02 9.7270678114589476e-03 0.0000000000000000e+00  1.3527466042521448e-02 9.5380534267884166e-03 0.0000000000000000e+00  1.8026233501752607e-03 9.5302033463151199e-03 0.0000000000000000e+00  -9.9011938800640589e-03 9.7029742870070757e-03 0.0000000000000000e+00  -2.1903868759810638e-02 1.0061080947485356e-02 0.0000000000000000e+00  -3.4532476869908353e-02 1.0615033765980133e-02 0.0000000000000000e+00  -3.4908931769970598e-02 2.9617597734076743e-03 0.0000000000000000e+00  -3.4442437591429842e-02 -4.6920481729856188e-03 0.0000000000000000e+00  -2.5044217411259916e-02 -3.3454633785395278e-03 0.0000000000000000e+00  -1.6326612619122979e-02 -2.1491874580671991e-03 0.0000000000000000e+00  -8.0536456459469972e-03 -1.0505476393074013e-03 0.0000000000000000e+00  0.0000000000000000e+00 0.0000000000000000e+00 0.0000000000000000e+00  0.0000000000000000e+00 0.0000000000000000e+00 0.0000000000000000e+00  4.9758949963503102e-03 -1.4006810371257831e-03 0.0000000000000000e+00  1.0072947342048095e-02 -2.8584182609362194e-03 0.0000000000000000e+00  1.5416393737762863e-02 -4.4317506130536694e-03 0.0000000000000000e+00  2.1136553200004293e-02 -6.1823175522826091e-03 0.0000000000000000e+00  2.1404833986956560e-02 2.7600448808866320e-03 0.0000000000000000e+00  2.1199425824377654e-02 1.1704485894402081e-02 0.0000000000000000e+00  1.4475309091209079e-02 1.1197801139022166e-02 0.0000000000000000e+00  8.1190016465955729e-03 1.0916336520959401e-02 0.0000000000000000e+00  1.9563564132145804e-03 1.0852426991056659e-02 0.0000000000000000e+00  -4.1819324309287243e-03 1.1004226474961109e-02 0.0000000000000000e+00  -1.0464704548532960e-02 1.1375655563302259e-02 0.0000000000000000e+00  -1.7064717966859745e-02 1.1976418407122541e-02 0.0000000000000000e+00  -1.7219830910950498e-02 2.9181909439267690e-03 0.0000000000000000e+00  -1.6950186075809042e-02 -6.1405342686277507e-03 0.0000000000000000e+00  -1.2323353885600798e-02 -4.4016734182563948e-03 