<?xml version="1.0"?>
<VTKFile type="UnstructuredGrid"  version="0.1"  >
<UnstructuredGrid>
<Piece  NumberOfPoints="589" NumberOfCells="1080">
<Points>
<DataArray  type="Float64"  NumberOfComponents="3"  format="ascii">-9 0 0  -8 0 0  -7 0 0  -6 0 0  -5 0 0  -4 0 0  -3 0 0  -2 0 0  -1 0 0  0 0 0  1 0 0  2 0 0  3 0 0  4 0 0  5 0 0  6 0 0  7 0 0  8 0 0  9 0 0  -9 2 0  -8.00000700744501 1.999989567324893 0  -7.000014691106231 1.999980413973478 0  -6.000024645345387 1.999973578060005 0  -5.000040518684353 1.999969513070629 0  -4.000024097402366 1.9999772523824 0  -3.000007208174429 1.999984551674722 0  -1.999998945470024 1.999991385866581 0  -0.9999975096899023 1.99999678941874 0  -3.417875265741328e-07 1.999999172048833 0  0.9999965039188815 1.9999975678576 0  1.999996853063945 1.999992377775048 0  3.000003269985141 1.999986022954351 0  4.000016533383572 1.999979265439152 0  5.000035706850118 1.99997664523923 0  6.000021493367544 1.999977554299821 0  7.000012765896855 1.999982660936341 0  8.000006093341545 1.999990607145596 0  9 2 0  -9 4 0  -8.000011309876479 3.999974017973354 0  -7.000020299925614 3.999951558657144 0  -6.000025614219838 3.999936072674704 0  -5.000027532553933 3.99993085020364 0  -4.000003681248767 3.999934499458127 0  -2.999987653803486 3.999955012027671 0  -1.999983400094689 3.999981690566608 0  -0.9999893633620395 4.000003155303131 0  -8.919842562650017e-07 4.000011843445153 0  0.9999873220304358 4.000005188407341 0  1.999980485019397 3.999987108522368 0  2.999983800732785 3.999962642831961 0  3.999998847594005 3.99993810967966 0  5.000021829185829 3.999930126111738 0  6.00002104255767 3.999938318692449 0  7.000017311976742 3.999953964230124 0  8.000009869577818 3.999975428384346 0  9 4 0  -9 6 0  -8.000024890837148 5.999944380800748 0  -7.000040611702379 5.999894812797392 0  -6.000040166949385 5.999857515926509 0  -5.000021553821436 5.999838449680645 0  -3.999975097187773 5.999868879846463 0  -2.999953943082779 5.999932318852601 0  -1.999962234575046 5.999998788740302 0  -0.9999829578966418 6.000035731314076 0  -3.902694760078807e-06 6.000043188421033 0  0.9999773042001446 6.000031315079662 0  1.999963016557343 5.999998414092685 0  2.999957696356543 5.999942827444409 0  3.999968658443974 5.999885247672502 0  5.000008114683487 5.999856889038072 0  6.000032367513475 5.999869273818883 0  7.000036704520567 5.999901995993207 0  8.00002335334784 5.999947822564232 0  9 6 0  -9 8 0  -8.000075142927111 7.999890552757573 0  -7.000125580658991 7.999788997365622 0  -6.000127390117276 7.999706051426002 0  -5.000060117886637 7.999659376925259 0  -3.999970258876715 7.999799589313541 0  -2.99998689124683 7.999964286745626 0  -2.000020668048097 8.000044472868446 0  -1.000023559938792 8.000053519824583 0  -3.477042901094838e-06 8.000056137708343 0  1.000011601306899 8.000064182739436 0  2.00000555566397 8.000030914048134 0  2.999966753055549 7.999974257547771 0  3.999953707117416 7.999833726161719 0  5.0000416711298 7.999675132331462 0  6.000123345134726 7.999718899839452 0  7.000126837621973 7.999797625798807 0  8.000076835413873 7.999894825080744 0  9 8 0  -9 10 0  -8.000224145504575 9.999805213930781 0  -7.000404986945163 9.999608831759312 0  -6.000490868462074 9.999409645709488 0  -5.000409851999676 9.999207369626978 0  -4.000267341343293 9.999660198241251 0  -3.000290822743491 10.00004948852912 0  -2.000233090885587 9.999982150664817 0  -1.000107883936646 9.999960543729189 0  -1.573993660754014e-05 9.999955274998374 0  1.000075593188905 9.999955711129335 0  2.00019705983017 9.999953393231223 0  3.00030413738087 10.00009289600475 0  4.000290921551183 9.999725641597696 0  5.000452093820873 9.99924098544146 0  6.000526899226153 9.999428807316354 0  7.000430855236264 9.999619426669698 0  8.000237588729048 9.99980996580004 0  9 10 0  -9 12 0  -8.000546038395051 11.9997263805276 0  -7.001063700834436 11.99944008586665 0  -6.001520911328646 11.99912595511248 0  -5.001877882874473 11.99876284230418 0  -4.001804992469741 11.99958884236976 0  -3.001871095386964 12.00040662912332 0  -2.001286749512412 12.00030731476541 0  -1.000636454704639 12.00025332352446 0  3.888898701992176e-05 12.00024236546448 0  1.000721108402941 12.00027610802862 0  2.001394934974067 12.00036444975074 0  3.002030109186369 12.00053220670076 0  4.001960359380456 11.9996509941292 0  5.002006646163291 11.99876251550338 0  6.001613115824382 11.99912778981793 0  7.001123395259989 11.99944171113208 0  8.000575406143959 11.99972722702403 0  9 12 0  -9 14 0  -8.000980761867408 13.99969838483605 0  -7.001963144739187 13.9993829213887 0  -6.002950066331896 13.99903853891842 0  -5.003947787380588 13.99864776930414 0  -4.003958060167029 13.99961376463926 0  -3.003964247753091 14.00059198975049 0  -2.002605473704705 14.00045143865649 0  -1.001265780080444 14.00037419350183 0  6.616848005767628e-05 14.0003508579104 0  1.001401174599769 14.00037835885895 0  2.002749284296323 14.00045820590708 0  3.004118438777059 14.00059475100008 0  4.004129293730603 13.99961655943038 0  5.004135122671979 13.99864446523319 0  6.003082479814777 13.99903271199805 0  7.00204806498899 13.99937793267351 0  8.001022303119568 13.99969563253089 0  9 14 0  -9 16 0  -8.0014080822266 15.99972587354721 0  -7.002842920104045 15.99944162607551 0  -6.004333587333785 15.99913696154731 0  -5.005913900000626 15.99880139879142 0  -4.005970066398096 15.99962641526561 0  -3.005917275897288 16.00044706967588 0  -2.0038502527143 16.00034307566974 0  -1.00186516904938 16.00028001859875 0  8.125305780161492e-05 16.00025653969949 0  1.002029925949762 16.00027175187112 0  2.004021780489098 16.00032569528174 0  3.00610036995503 16.0004191301393 0  4.006159917578755 15.99959125068638 0  5.00610786084428 15.99876274098417 0  6.004476204572876 15.99911009727042 0  7.00293647093156 15.99942448855638 0  8.001454379963731 15.99971749957258 0  9 16 0  -9 18 0  -8.001727411030929 17.9997938702876 0  -7.003497640879168 17.99958209485284 0  -6.005355735406352 17.99935913159885 0  -5.00735117505014 17.99911967003133 0  -4.007436025156732 17.99962950431297 0  -3.007354501530286 18.00013868521176 0  -2.00477031275223 18.00007157218739 0  -1.002311337816694 18.00002815830363 0  8.727555586151478e-05 18.00000807709386 0  1.002487237164116 18.00001082575277 0  2.004950169395528 18.0000357986377 0  3.007540621640449 18.00008216523826 0  4.007627044581447 17.99957233884051 0  5.007544736595753 17.99906402121799 0  6.005499124890957 17.99931957224323 0  7.003592351607631 17.9995567067294 0  8.001774496874603 17.99978146029318 0  9 18 0  -9 20 0  -8.001874566149265 19.99988443484646 0  -7.003799125829055 19.9997673381781 0  -6.005825581066687 19.99964734707929 0  -5.008009650756942 19.99952343040359 0  -4.008106485190927 19.99962974496157 0  -3.008011090252502 19.9997353391596 0  -2.005192946044089 19.9997057176964 0  -1.002517690434607 19.99968342710237 0  8.783420448084271e-05 19.99966875313389 0  1.002694136617767 19.99966144546714 0  2.005371689462303 19.99966073646059 0  3.008193551326719 19.9996652949097 0  4.008290804515777 19.99956293391712 0  5.008194836870506 19.99946160802584 0  6.005963490184526 19.999602777752 0  7.003890587982994 19.99973848026544 0  8.001920151986683 19.9998702619733 0  8.999999999994197 19.9999999999934 0  -9 22 0  -8.001820916874022 21.99998110820185 0  -7.003691261924406 21.99996415505169 0  -6.005662012647131 21.99995126786302 0  -5.007787231971272 21.99994495506745 0  -4.007882048979127 21.9996260775889 0  -3.007788163730083 21.99930639825521 0  -2.005047497604699 21.99931068802033 0  -1.002446756680195 21.99930839144028 0  8.527508747732803e-05 21.9993001258253 0  1.002617655939484 21.99928581967716 0  2.005219420718017 21.99926472572884 0  3.007961717253222 21.99923540827698 0  4.008055186742609 21.99955992808523 0  5.007959574157477 21.99988503979321 0  6.005791001270942 21.99990784141488 0  7.003777111186229 21.99993591873523 0  8.001863793155989 21.99996720433009 0  9 22 0  -9 24 0  -8.001568702334115 24.00007002742586 0  -7.003179970863065 24.00014470688106 0  -6.004877568590412 24.00022888364448 0  -5.006707572129582 24.00032780165153 0  -4.006789342630699 23.99961877728402 0  -3.006709022963651 23.99890903232204 0  -2.004345717481908 23.99894186923943 0  -1.002102541365129 23.99895710485089 0  8.139913226209369e-05 23.99895553201487 0  1.002265361538097 23.99893720648094 0  2.004508585765592 23.99890145025045 0  3.006871914182354 23.99884684657408 0  4.006949992698543 23.99956166955559 0  5.006866225612971 24.00027683338026 0  6.004996827759763 24.0001917820422 0  7.003259589035113 24.00012050822016 0  8.001608537051931 24.00005808915243 0  9 24 0  -9 26 0  -8.001145244642174 26.00014035581271 0  -7.002321448487614 26.00028727897214 0  -6.003560411905795 26.0004475322636 0  -5.004895464017016 26.0006282825501 0  -4.004955801391822 25.99960837941221 0  -3.004898129597396 25.99858791898622 0  -2.003166663779465 25.9986431505173 0  -1.001522853869379 25.99867274754445 0  7.757387055863234e-05 25.99867764021847 0  1.001677780283417 25.99865799847244 0  2.003320909366297 25.99861323211072 0  3.005051182663358 25.99854198919817 0  4.005105303462415 25.99956661960509 0  5.00504210267652 26.00059140097245 0  6.003671080418016 26.00042061307533 0  7.002395539339263 26.00026968611372 0  8.001182375855404 26.00013166518058 0  9 26 0  -9 28 0  -8.000596824469637 28.00018443468614 0  -7.001209834799145 28.0003765418739 0  -6.001855691904404 28.00058419191686 0  -5.002551794842237 28.00081565673678 0  -4.002584976427334 27.99959587473565 0  -3.002555928122024 27.99837580213594 0  -2.001640163356165 27.99844665000287 0  -1.000771076190447 27.99848688259832 0  7.477577766173892e-05 27.99849755538657 0  1.000920245578026 27.99847894848301 0  2.001788166187644 27.99843056683108 0  3.002701920139275 27.99835113906617 0  4.002726628076826 27.99957367980483 0  5.002690073536499 28.00079628586087 0  6.00196037776638 28.00057002348516 0  7.001280075294088 28.0003672670627 0  8.000632073889125 28
[...]
<PointData  Vectors="f_44-2"> 
<DataArray  type="Float64"  Name="f_44-2"  NumberOfComponents="3" format="ascii">0.0000000000000000e+00 0.0000000000000000e+00 0.0000000000000000e+00  0.0000000000000000e+00 0.0000000000000000e+00 0.0000000000000000e+00  0.0000000000000000e+00 0.0000000000000000e+00 0.0000000000000000e+00  0.0000000000000000e+00 0.0000000000000000e+00 0.0000000000000000e+00  0.0000000000000000e+00 0.0000000000000000e+00 0.0000000000000000e+00  0.0000000000000000e+00 0.0000000000000000e+00 0.0000000000000000e+00  0.0000000000000000e+00 0.0000000000000000e+00 0.0000000000000000e+00  0.0000000000000000e+00 0.0000000000000000e+00 0.0000000000000000e+00  0.0000000000000000e+00 0.0000000000000000e+00 0.0000000000000000e+00  0.0000000000000000e+00 0.0000000000000000e+00 0.0000000000000000e+00  0.0000000000000000e+00 0.0000000000000000e+00 0.0000000000000000e+00  0.0000000000000000e+00 0.0000000000000000e+00 0.0000000000000000e+00  0.0000000000000000e+00 0.0000000000000000e+00 0.0000000000000000e+00  0.0000000000000000e+00 0.0000000000000000e+00 0.0000000000000000e+00  0.0000000000000000e+00 0.0000000000000000e+00 0.0000000000000000e+00  0.0000000000000000e+00 0.0000000000000000e+00 0.0000000000000000e+00  0.0000000000000000e+00 0.0000000000000000e+00 0.0000000000000000e+00  0.0000000000000000e+00 0.0000000000000000e+00 0.0000000000000000e+00  0.0000000000000000e+00 0.0000000000000000e+00 0.0000000000000000e+00  0.0000000000000000e+00 0.0000000000000000e+00 0.0000000000000000e+00  -2.9776911903215419e-05 -4.1220254112245963e-05 0.0000000000000000e+00  -6.2973129973109554e-05 -7.7949906213050816e-05 0.0000000000000000e+00  -1.0666420455225313e-04 -1.0661733053951188e-04 0.0000000000000000e+00  -1.7621800326758031e-04 -1.2590033273021046e-04 0.0000000000000000e+00  -1.1067910997648971e-04 -9.2650393335717799e-05 0.0000000000000000e+00  -4.1572690491719413e-05 -6.4174872103751058e-05 0.0000000000000000e+00  -5.6273082842379225e-06 -3.8814519940548649e-05 0.0000000000000000e+00  4.9950491397769953e-06 -1.8936214201609012e-05 0.0000000000000000e+00  -6.8200741976379858e-08 -1.0433799198906850e-05 0.0000000000000000e+00  -6.0561780945032588e-06 -1.6824326106509503e-05 0.0000000000000000e+00  1.3939227562955411e-06 -3.6803385366440073e-05 0.0000000000000000e+00  3.2222102839719329e-05 -6.1823334343170982e-05 0.0000000000000000e+00  9.0105280159917691e-05 -8.9963294514180912e-05 0.0000000000000000e+00  1.7298804765686303e-04 -1.0526643449533850e-04 0.0000000000000000e+00  1.0564394470702245e-04 -9.7365331282829376e-05 0.0000000000000000e+00  6.2881284185897887e-05 -7.3702415199373723e-05 0.0000000000000000e+00  2.9905438415555472e-05 -3.9515950495321106e-05 0.0000000000000000e+00  0.0000000000000000e+00 0.0000000000000000e+00 0.0000000000000000e+00  0.0000000000000000e+00 0.0000000000000000e+00 0.0000000000000000e+00  -4.5875353687931790e-05 -1.0039803425044732e-04 0.0000000000000000e+00  -8.3966901921022027e-05 -1.8814505537318176e-04 0.0000000000000000e+00  -1.0987661215950091e-04 -2.5077038442382273e-04 0.0000000000000000e+00  -1.2486661568693653e-04 -2.7619165521301575e-04 0.0000000000000000e+00  -3.2609544001928871e-05 -2.6307985261041895e-04 0.0000000000000000e+00  3.1829172148505428e-05 -1.8787912217414413e-04 0.0000000000000000e+00  5.4005505398544442e-05 -8.9743482786769572e-05 0.0000000000000000e+00  3.9485225320387984e-05 -1.1303813346462710e-05 0.0000000000000000e+00  4.7528213027652884e-06 1.9905304613168135e-05 0.0000000000000000e+00  -3.0773660805837754e-05 -5.8059298110800882e-06 0.0000000000000000e+00  -4.7781749692525909e-05 -7.4550402911464794e-05 0.0000000000000000e+00  -2.6959346960834619e-05 -1.6811462756309640e-04 0.0000000000000000e+00  3.7264705729717701e-05 -2.6335495507818802e-04 0.0000000000000000e+00  1.2961000256102035e-04 -2.9965687769183867e-04 0.0000000000000000e+00  1.1296012248901660e-04 -2.5777455492834433e-04 0.0000000000000000e+00  8.6613547729498752e-05 -1.8949357268589285e-04 0.0000000000000000e+00  4.7526891543073896e-05 -1.0034420764733226e-04 0.0000000000000000e+00  0.0000000000000000e+00 0.0000000000000000e+00 0.0000000000000000e+00  0.0000000000000000e+00 0.0000000000000000e+00 0.0000000000000000e+00  -9.3103358040197716e-05 -2.1015683444215900e-04 0.0000000000000000e+00  -1.5368793683592449e-04 -3.9880584797581572e-04 0.0000000000000000e+00  -1.5676883745068546e-04 -5.4371971614620973e-04 0.0000000000000000e+00  -9.5000847964450696e-05 -6.2329345387222119e-04 0.0000000000000000e+00  7.9298207279126763e-05 -5.1458991802905065e-04 0.0000000000000000e+00  1.6228217623403626e-04 -2.8511707838155303e-04 0.0000000000000000e+00  1.3978052548302563e-04 -4.4242289020088570e-05 0.0000000000000000e+00  7.2109024539000562e-05 9.0323332852669535e-05 0.0000000000000000e+00  3.0055193096943251e-06 1.1741885828859141e-04 0.0000000000000000e+00  -5.8610918918297740e-05 7.2396807605145007e-05 0.0000000000000000e+00  -1.0364060634439734e-04 -5.1050055308827045e-05 0.0000000000000000e+00  -1.1590537048363229e-04 -2.5901695598010003e-04 0.0000000000000000e+00  -6.8496449881509625e-05 -4.7546623324225691e-04 0.0000000000000000e+00  8.3789006345742298e-05 -5.8438949413109557e-04 0.0000000000000000e+00  1.5906359853560639e-04 -5.2375885047680382e-04 0.0000000000000000e+00  1.6130019550175524e-04 -3.8873530624271220e-04 0.0000000000000000e+00  9.8900007942830142e-05 -2.0592971225369172e-04 0.0000000000000000e+00  0.0000000000000000e+00 0.0000000000000000e+00 0.0000000000000000e+00  0.0000000000000000e+00 0.0000000000000000e+00 0.0000000000000000e+00  -2.7052440041322505e-04 -4.0584271843706820e-04 0.0000000000000000e+00  -4.5338558876739806e-04 -7.8429532687166814e-04 0.0000000000000000e+00  -4.6303629180024781e-04 -1.0979194338409965e-03 0.0000000000000000e+00  -2.2491766307610568e-04 -1.2846901432892732e-03 0.0000000000000000e+00  1.0267914434115259e-04 -7.8102908557617075e-04 0.0000000000000000e+00  5.2549452944477363e-05 -1.8898344829970353e-04 0.0000000000000000e+00  -5.9822209407814030e-05 1.0206480388623619e-04 0.0000000000000000e+00  -6.2206354149703643e-05 1.3911423122561477e-04 0.0000000000000000e+00  1.6719704456121776e-05 1.5034581968568760e-04 0.0000000000000000e+00  7.7137087980698942e-05 1.7869767545782258e-04 0.0000000000000000e+00  5.9555464006002222e-05 5.3897236739100182e-05 0.0000000000000000e+00  -7.6672253432651506e-05 -1.6036282680041887e-04 0.0000000000000000e+00  -1.1623517821738478e-04 -6.8158785101681506e-04 0.0000000000000000e+00  2.1372063695115253e-04 -1.2685196506021454e-03 0.0000000000000000e+00  4.9724089039416815e-04 -1.0871603267832652e-03 0.0000000000000000e+00  4.9444311298982540e-04 -7.7898614580747662e-04 0.0000000000000000e+00  2.9619329033395836e-04 -4.0392067591424650e-04 0.0000000000000000e+00  0.0000000000000000e+00 0.0000000000000000e+00 0.0000000000000000e+00  0.0000000000000000e+00 0.0000000000000000e+00 0.0000000000000000e+00  -7.9808336649992394e-04 -7.1067210373497024e-04 0.0000000000000000e+00  -1.4449632540807094e-03 -1.4282197384727167e-03 0.0000000000000000e+00  -1.7598491665316387e-03 -2.1584712742725044e-03 0.0000000000000000e+00  -1.4894631492562665e-03 -2.9044880400649294e-03 0.0000000000000000e+00  -9.7930688457383355e-04 -1.2986417474851217e-03 0.0000000000000000e+00  -1.0445915436353133e-03 8.4078472176017460e-05 0.0000000000000000e+00  -8.2001450192139853e-04 -1.4127191298245629e-04 0.0000000000000000e+00  -3.6190345124928290e-04 -2.1366606806919619e-04 0.0000000000000000e+00  -1.9608094396148924e-05 -2.3135559690370844e-04 0.0000000000000000e+00  3.2129751725078871e-04 -2.3111072883634628e-04 0.0000000000000000e+00  7.7272733732788575e-04 -2.4398733138972041e-04 0.0000000000000000e+00  1.1770152637559340e-03 2.5270991180354710e-04 0.0000000000000000e+00  1.1385436265636099e-03 -1.0952967402562536e-03 0.0000000000000000e+00  1.7293493608921920e-03 -2.8694135656682773e-03 0.0000000000000000e+00  1.9795763989886471e-03 -2.1569571240728216e-03 0.0000000000000000e+00  1.6086943884416902e-03 -1.4363163225317005e-03 0.0000000000000000e+00  8.8479583601593027e-04 -7.1702221429737628e-04 0.0000000000000000e+00  0.0000000000000000e+00 0.0000000000000000e+00 0.0000000000000000e+00  0.0000000000000000e+00 0.0000000000000000e+00 0.0000000000000000e+00  -1.9280942706228039e-03 -9.8712047112024174e-04 0.0000000000000000e+00  -3.7606648804094762e-03 -2.0198504263718125e-03 0.0000000000000000e+00  -5.3899388281374886e-03 -3.1527654984859869e-03 0.0000000000000000e+00  -6.6819257486021664e-03 -4.4619061996384324e-03 0.0000000000000000e+00  -6.4322378099247639e-03 -1.5703712331659099e-03 0.0000000000000000e+00  -6.6546105452626398e-03 1.2908177484624774e-03 0.0000000000000000e+00  -4.5022988319459670e-03 9.4951250680540028e-04 0.0000000000000000e+00  -2.1388069468323183e-03 7.6977425103542843e-04 0.0000000000000000e+00  3.0117592414313597e-04 7.4271875068180151e-04 0.0000000000000000e+00  2.7604250727317398e-03 8.7472427146680044e-04 0.0000000000000000e+00  5.1906842233667254e-03 1.2025009186268974e-03 0.0000000000000000e+00  7.4897666827811052e-03 1.8176668469612885e-03 0.0000000000000000e+00  7.2414625643153242e-03 -1.3854179386329846e-03 0.0000000000000000e+00  7.4062317708167742e-03 -4.6155755063416728e-03 0.0000000000000000e+00  5.9408794607948602e-03 -3.2575095086028248e-03 0.0000000000000000e+00  4.1322678214566876e-03 -2.0870359416943064e-03 0.0000000000000000e+00  2.1152908120830420e-03 -1.0202751219981015e-03 0.0000000000000000e+00  0.0000000000000000e+00 0.0000000000000000e+00 0.0000000000000000e+00  0.0000000000000000e+00 0.0000000000000000e+00 0.0000000000000000e+00  -3.4353621247917416e-03 -1.0801477635978766e-03 0.0000000000000000e+00  -6.8818188032391866e-03 -2.2090407297591218e-03 0.0000000000000000e+00  -1.0355958716697509e-02 -3.4396783582423085e-03 0.0000000000000000e+00  -1.3887179008736674e-02 -4.8333861745749199e-03 0.0000000000000000e+00  -1.3934652206479246e-02 -1.5028649149647351e-03 0.0000000000000000e+00  -1.3942181944305038e-02 1.8705460512679173e-03 0.0000000000000000e+00  -9.0384655113055871e-03 1.3958774301603906e-03 0.0000000000000000e+00  -4.2255888133228402e-03 1.1441063497781006e-03 0.0000000000000000e+00  5.4612350860314661e-04 1.0820501686153506e-03 0.0000000000000000e+00  5.3228121047933464e-03 1.1993341387141216e-03 0.0000000000000000e+00  1.0147093129644799e-02 1.5021239545137018e-03 0.0000000000000000e+00  1.5054242082438225e-02 2.0067919899743108e-03 0.0000000000000000e+00  1.5096293029993357e-02 -1.5283990547878157e-03 0.0000000000000000e+00  1.5113514209588003e-02 -5.0415252718582423e-03 0.0000000000000000e+00  1.1263204005275470e-02 -3.6037539901933725e-03 0.0000000000000000e+00  7.4823522645322670e-03 -2.3205478785029952e-03 0.0000000000000000e+00  3.7346343817482737e-03 -1.1362928084981210e-03 0.0000000000000000e+00  0.0000000000000000e+00 0.0000000000000000e+00 0.0000000000000000e+00  0.0000000000000000e+00 0.0000000000000000e+00 0.0000000000000000e+00  -4.8916960767339821e-03 -9.7755079443162052e-04 0.0000000000000000e+00  -9.8814447666025276e-03 -1.9898856712058629e-03 0.0000000000000000e+00  -1.5076282903750515e-02 -3.0722553664919122e-03 0.0000000000000000e+00  -2.0600178329205812e-02 -4.2603373885306724e-03 0.0000000000000000e+00  -2.0805670010810240e-02 -1.4786149214302193e-03 0.0000000000000000e+00  -2.0608428009282864e-02 1.2874969431582374e-03 0.0000000000000000e+00  -1.3228377568367863e-02 9.5596851846085516e-04 0.0000000000000000e+00  -6.1551376009453531e-03 7.6386367982429380e-04 0.0000000000000000e+00  7.7159080417848092e-04 7.0789782808070717e-04 0.0000000000000000e+00  7.7027657959654458e-03 7.8574517873041710e-04 0.0000000000000000e+00  1.4789124226356899e-02 9.9805853235177618e-04 0.0000000000000000e+00  2.2191130644689108e-02 1.3476717486767750e-03 0.0000000000000000e+00  2.2405965763439346e-02 -1.6343802749440076e-03 0.0000000000000000e+00  2.2217101186633181e-02 -4.6185349163364742e-03 0.0000000000000000e+00  1.6287484399805589e-02 -3.3290942511434883e-03 0.0000000000000000e+00  1.0687633491651683e-02 -2.1563987388348526e-03 0.0000000000000000e+00  5.2943007208628382e-03 -1.0595369843834155e-03 0.0000000000000000e+00  0.0000000000000000e+00 0.0000000000000000e+00 0.0000000000000000e+00  0.0000000000000000e+00 0.0000000000000000e+00 0.0000000000000000e+00  -5.9484899134230355e-03 -7.3566440069602846e-04 0.0000000000000000e+00  -1.2048767679169256e-02 -1.4899388305281832e-03 0.0000000000000000e+00  -1.8460583462914851e-02 -2.2809184547787961e-03 0.0000000000000000e+00  -2.5359260936897443e-02 -3.1256782319205607e-03 0.0000000000000000e+00  -2.5659094445983587e-02 -1.4835570846134646e-03 0.0000000000000000e+00  -2.5366171663867270e-02 1.5638014823504109e-04 0.0000000000000000e+00  -1.6213022960159432e-02 -3.8619335085419594e-05 0.0000000000000000e+00  -7.5087729625797706e-03 -1.5646904295346325e-04 0.0000000000000000e+00  9.7902447234923047e-04 -1.9708208934894931e-04 0.0000000000000000e+00  9.4714800816508432e-03 -1.6137809243255187e-04 0.0000000000000000e+00  1.8189316876589937e-02 -5.1067362693680710e-05 0.0000000000000000e+00  2.7363872832478736e-02 1.3087370397444457e-04 0.0000000000000000e+00  2.7671541868198389e-02 -1.7110841863048722e-03 0.0000000000000000e+00  2.7378649140567885e-02 -3.5474117524712219e-03 0.0000000000000000e+00  1.9969939266510649e-02 -2.5857878650284668e-03 0.0000000000000000e+00  1.3052403761119435e-02 -1.6878868501610273e-03 0.0000000000000000e+00  6.4495672137060778e-03 -8.3311020514296422e-04 0.0000000000000000e+00  0.0000000000000000e+00 0.0000000000000000e+00 0.0000000000000000e+00  0.0000000000000000e+00 0.0000000000000000e+00 0.0000000000000000e+00  -6.3918117696462858e-03 -4.1946100768970043e-04 0.0000000000000000e+00  -1.2957416697117639e-02 -8.4303298904020668e-04 0.0000000000000000e+00  -1.9877087123453433e-02 -1.2741231818992670e-03 0.0000000000000000e+00  -2.7343996739680580e-02 -1.7148093967262301e-03 0.0000000000000000e+00  -2.7679674821167649e-02 -1.4935662687799239e-03 0.0000000000000000e+00  -2.7344759487077951e-02 -1.2751566991702965e-03 0.0000000000000000e+00  -1.7426534253104652e-02 -1.3387697734873133e-03 0.0000000000000000e+00  -8.0083176333329079e-03 -1.3824736824350429e-03 0.0000000000000000e+00  1.1674872629975578e-03 -1.4041242190147257e-03 0.0000000000000000e+00  1.0349428315398177e-02 -1.4038296572758068e-03 0.0000000000000000e+00  1.9785930223631409e-02 -1.3838630260996350e-03 0.0000000000000000e+00  2.9734609096497645e-02 -1.3488309949638252e-03 0.0000000000000000e+00  3.0077283255911053e-02 -1.7484288907146485e-03 0.0000000000000000e+00  2.9739304131920226e-02 -2.1446985782238468e-03 0.0000000000000000e+00  2.1664252162776447e-02 -1.5871622131394553e-03 0.0000000000000000e+00  1.4144446934916136e-02 -1.0472633910573394e-03 0.0000000000000000e+00  6.9840177430024446e-03 -5.2023109340822485e-04 0.0000000000000000e+00  -1.0636189216152611e-10 0.0000000000000000e+00 0.0000000000000000e+00  0.0000000000000000e+00 0.0000000000000000e+00 0.0000000000000000e+00  -6.1341455382028752e-03 -8.6950441084017414e-05 0.0000000000000000e+00  -1.2437412331658192e-02 -1.6610741954437572e-04 0.0000000000000000e+00  -1.9083884748546370e-02 -2.2895792127374632e-04 0.0000000000000000e+00  -2.6257625809248800e-02 -2.6554482063269606e-04 0.0000000000000000e+00  -2.6582501492494283e-02 -1.5143392487901638e-03 0.0000000000000000e+00  -2.6259798156521113e-02 -2.7667603000991639e-03 0.0000000000000000e+00  -1.6664655495474339e-02 -2.7176133084083143e-03 0.0000000000000000e+00  -7.5501670710450084e-03 -2.6956324060483758e-03 0.0000000000000000e+00  1.3314798974707813e-03 -2.6978757785449240e-03 0.0000000000000000e+00  1.0220866299091384e-02 -2.7239867118839397e-03 0.0000000000000000e+00  1.9358651713020248e-02 -2.7761420222519925e-03 0.0000000000000000e+00  2.8992879810122933e-02 -2.8590910777592671e-03 0.0000000000000000e+00  2.9318694014372971e-02 -1.7607565151689789e-03 0.0000000000000000e+00  2.8982966524477176e-02 -6.6132065740403449e-04 0.0000000000000000e+00  2.1115085798052994e-02 -5.1812459355475831e-04 0.0000000000000000e+00  1.3785522301799032e-02 -3.5524461375076170e-04 0.0000000000000000e+00  6.8064043219803628e-03 -1.8042283663465437e-04 0.0000000000000000e+00  0.0000000000000000e+00 0.0000000000000000e+00 0.0000000000000000e+00  0.0000000000000000e+00 0.0000000000000000e+00 0.0000000000000000e+00  -5.1940322616974149e-03 2.1437700679598594e-04 0.0000000000000000e+00  -1.0531960300730163e-02 4.4556694741223362e-04 0.0000000000000000e+00  -1.6160605873797692e-02 7.1107679347553966e-04 0.0000000000000000e+00  -2.2233101124858587e-02 1.0298312131227531e-03 0.0000000000000000e+00  -2.2511848052866393e-02 -1.5472706326720843e-03 0.0000000000000000e+00  -2.2242533636871460e-02 -4.1280465147891764e-03 0.0000000000000000e+00  -1.4004075119914007e-02 -3.9888324256625030e-03 0.0000000000000000e+00  -6.1716183908311073e-03 -3.9128661685707174e-03 0.0000000000000000e+00  1.4651470916581596e-03 -3.8971311585396535e-03 0.0000000000000000e+00  9.1110523779452304e-03 -3.9410069471941273e-03 0.0000000000000000e+00  1.6971062361525444e-02 -4.0464305126219572e-03 0.0000000000000000e+00  2.5255754380932468e-02 -4.2178824696397325e-03 0.0000000000000000e+00  2.5524534705843219e-02 -1.7570919565378651e-03 0.0000000000000000e+00  2.5228674237195374e-02 7.0351392803892306e-04 0.0000000000000000e+00  1.8391320627644019e-02 4.7195814422069162e-04 0.0000000000000000e+00  1.2012123649454531e-02 2.8884014838007212e-04 0.0000000000000000e+00  5.9321826488977648e-03 1.3682067696416458e-04 0.0000000000000000e+00  0.0000000000000000e+00 0.0000000000000000e+00 0.0000000000000000e+00  0.0000000000000000e+00 0.0000000000000000e+00 0.0000000000000000e+00  -3.6750121266632602e-03 4.4856820057964793e-04 0.0000000000000000e+00  -7.4521646234272905e-03 9.2007517626641240e-04 0.0000000000000000e+00  -1.1436281141264623e-02 1.4381090692861436e-03 0.0000000000000000e+00  -1.5736738964631649e-02 2.0276992332849426e-03 0.0000000000000000e+00  -1.5942955878291962e-02 -1.5920465381390563e-03 0.0000000000000000e+00  -1.5756719140333404e-02 -5.2149090101385673e-03 0.0000000000000000e+00  -9.7433185900807993e-03 -5.0085076033751378e-03 0.0000000000000000e+00  -4.0207384645319852e-03 -4.8913678934014975e-03 0.0000000000000000e+00  1.5632550374188401e-03 -4.8601572844741651e-03 0.0000000000000000e+00  7.1573561823215868e-03 -4.9141055779086725e-03 0.0000000000000000e+00  1.2910186112843768e-02 -5.0549748727460103e-03 0.0000000000000000e+00  1.8974956895599436e-02 -5.2867435500519068e-03 0.0000000000000000e+00  1.9158080144283298e-02 -1.7447789445679124e-03 0.0000000000000000e+00  1.8930257378609216e-02 1.7963197975735228e-03 0.0000000000000000e+00  1.3813897395163895e-02 1.2682158877403268e-03 0.0000000000000000e+00  9.0289594256511251e-03 8.0852872365245142e-04 0.0000000000000000e+00  4.4609218574507142e-03 3.9330919037091131e-04 0.0000000000000000e+00  0.0000000000000000e+00 0.0000000000000000e+00 0.0000000000000000e+00  0.0000000000000000e+00 0.0000000000000000e+00 0.0000000000000000e+00  -1.7395702310262740e-03 5.9113772708455331e-04 0.0000000000000000e+00  -3.5301510530735547e-03 1.2085568891225160e-03 0.0000000000000000e+00  -5.4244649197620507e-03 1.8791735062087466e-03 0.0000000000000000e+00  -7.4771806287782672e-03 2.6312255503534651e-03 0.0000000000000000e+00  -7.5926674964152206e-03 -1.6452932118639475e-03 0.0000000000000000e+00  -7.5077831803085863e-03 -5.9236955826905691e-03 0.0000000000000000e+00  -4.3417533112611569e-03 -5.6735824231304594e-03 0.0000000000000000e+00  -1.3256469929493020e-03 -5.5285371248482351e-03 0.0000000000000000e+00  1.6219353009641010e-03 -5.4851773590362876e-03 0.0000000000000000e+00  4.5801239774696774e-03 -5.5424874492623439e-03 0.0000000000000000e+00  7.6282071774653832e-03 -5.7019364702646774e-03 0.0000000000000000e+00  1.0847619872391290e-02 -5.9674530683723271e-03 0.0000000000000000e+00  1.0927775204975374e-02 -1.7276688042602037e-03 0.000000000000000