<?xml version="1.0"?>
<VTKFile type="UnstructuredGrid"  version="0.1"  >
<UnstructuredGrid>
<Piece  NumberOfPoints="589" NumberOfCells="1080">
<Points>
<DataArray  type="Float64"  NumberOfComponents="3"  format="ascii">-9 0 0  -8 0 0  -7 0 0  -6 0 0  -5 0 0  -4 0 0  -3 0 0  -2 0 0  -1 0 0  0 0 0  1 0 0  2 0 0  3 0 0  4 0 0  5 0 0  6 0 0  7 0 0  8 0 0  9 0 0  -9 2 0  -7.999999107453908 2.000000867121496 0  -6.999998203172089 2.000001634203974 0  -5.999997210014275 2.00000222071635 0  -4.999995908435724 2.000002591308784 0  -3.99999731305647 2.000001870966684 0  -2.99999867972866 2.000001233340931 0  -1.999999339960443 2.000000648029971 0  -0.9999994437011079 2.00000016142555 0  8.33881680288898e-07 1.999999869102424 0  1.000001244541271 1.999999806966833 0  2.000001586395439 1.999999902352817 0  3.00000177956915 1.999999939330914 0  4.000001936047977 1.999999694933604 0  5.000002342635748 1.999998693103564 0  6.000001814474348 1.999999279105229 0  7.000001207141178 1.999999653989093 0  8.000000596762929 1.999999869320548 0  9 2 0  -9.000000000004983 4 0  -7.999998261848251 4.000002134402683 0  -6.999996761846325 4.000003990691501 0  -5.999995653710799 4.000005305114286 0  -4.999994949689527 4.000005844220563 0  -3.999996781024555 4.000005238248001 0  -2.999997934149385 4.000003457315319 0  -1.999998151027751 4.000001252445166 0  -0.999997562996827 3.999999430447614 0  3.466732267247772e-06 3.999998490164061 0  1.000004587757773 3.999998455854268 0  2.000005523725735 3.999998949603259 0  3.000006026020873 3.999999539977132 0  4.000006037041835 3.999999697642333 0  5.000005654149713 3.999998258397274 0  6.000003945631232 3.999999402684773 0  7.000002426459753 3.999999946189211 0  8.000001139062762 4.000000077249611 0  9 4 0  -9 6 0  -7.999996463615461 6.000004514153481 0  -6.999993753052202 6.000008514655654 0  -5.999992480951545 6.000011490788752 0  -4.999992782620434 6.000013000975525 0  -3.999996169704086 6.000010098573291 0  -2.999997501241499 6.000004760110061 0  -1.99999637453054 5.99999933562108 0  -0.9999944149628649 5.999996499423538 0  7.320467711592556e-06 5.999995774693341 0  1.00000871899966 5.999996067637098 0  2.000009810840762 5.999997227186873 0  3.000010540769978 5.999999255602381 0  4.000010548173767 6.000000985533514 0  5.000009035909749 6.000000819906707 0  6.000005319388989 6.000001929405217 0  7.000002718673943 6.000001888169748 0  8.00000108802263 6.00000111841998 0  9 6 0  -9 8 0  -7.999991361901041 8.000008948572253 0  -6.99998499038601 8.000017136157473 0  -5.99998301311718 8.000023540297738 0  -4.999987070432877 8.000026498866657 0  -3.999994098114025 8.00001422293095 0  -2.999991250479682 8.000000221324839 0  -1.99998729962155 7.99999425307805 0  -0.9999864760859315 7.999994663757074 0  1.205663382684528e-05 7.999994943995389 0  1.000010685242422 7.999994288272686 0  2.000010709713607 7.999995175305885 0  3.000012938884073 7.999996732916983 0  4.000013939525942 8.000002654451631 0  5.000009598722114 8.000009636721305 0  6.000002229879857 8.000009059097188 0  6.999999130605536 8.000006744225772 0  7.999998866455522 8.000003554278186 0  9 8 0  -9 10 0  -7.999977193478782 10.00001642722668 0  -6.999958650458765 10.00003289188053 0  -5.999949406711144 10.00004937280084 0  -4.999956367963738 10.00006571217135 0  -3.999968378296804 10.00002384921584 0  -2.99996364565974 9.99998864156648 0  -1.999967034616156 9.999998232762675 0  -0.9999773231410561 10.00000136770341 0  1.608856539463581e-05 10.00000213192481 0  1.000010124728641 10.00000173468114 0  2.000002780589768 10.00000061925133 0  2.999995551661197 9.999990433141233 0  3.999996124766251 10.00000782074215 0  4.999988516956283 10.00003165887304 0  5.999982061804375 10.00002313793265 0  6.999984201890229 10.00001510065241 0  7.999991054047261 10.00000744748737 0  9 10 0  -9 12 0  -7.999945969117033 12.00002375687595 0  -6.999895110294914 12.00004858375782 0  -5.999850974558092 12.00007577370869 0  -4.999817888493032 12.00010716398836 0  -3.999824272822602 12.00002715269894 0  -2.999815638350484 11.99994761637174 0  -1.999850476803959 11.9999613013936 0  -0.9998936606774496 11.9999707867774 0  5.896194916778568e-05 11.99997642957784 0  1.000008941719766 11.99997838913777 0  1.999956996773131 11.99997626249104 0  2.999904154777933 11.99996871536825 0  3.999907345364207 12.00001036347722 0  4.999907236565039 12.00005214573821 0  5.999927511801365 12.00003528236758 0  6.999950424478585 12.00002192075125 0  7.999974866266482 12.00001051805694 0  9 12 0  -9 14 0  -7.999902052156925 14.00002680738352 0  -6.999804670762839 14.00005482489926 0  -5.999708331646862 14.00008537554508 0  -4.999613234762496 14.00012000486339 0  -3.999612285002173 14.00002131097981 0  -2.999608829101166 13.99992117263997 0  -1.999700546178326 13.99994117004466 0  -0.9997932304776331 13.99995557767377 0  0.0001124024142832119 13.99996546148325 0  1.000015455959027 13.99997138953376 0  1.999914802733698 13.99997358886819 0  2.999809151363371 13.99997208446763 0  3.999807202166114 14.00001063711293 0  4.999809717836546 14.00004852277362 0  5.999862410293099 14.00003342041409 0  6.999910529751894 14.00002090546962 0  7.999955910262835 14.00001005021405 0  9 14 0  -9 16 0  -7.999855862991548 16.00002501802397 0  -6.999710051582611 16.00005093485567 0  -5.999560703009339 16.00007866462351 0  -4.99940554832883 16.00010913391218 0  -3.999400612822781 16.00001687380504 0  -2.999402648997362 15.99992476559559 0  -1.999546761637228 15.99994340127628 0  -0.9996860785304656 15.99995846666249 0  0.000176154718989516 15.9999703188731 0  1.000036795465692 15.99997930698864 0  1.999892603206599 15.99998573234626 0  2.99974004423108 15.99998986370173 0  3.999735295856627 16.00001045248103 0  4.999740961048326 16.00003080149301 0  5.999815598056284 16.00002120922116 0  6.999881589472835 16.00001325167808 0  7.999942116738013 16.00000636231007 0  9 16 0  -9 18 0  -7.999816362872526 18.00001963365729 0  -6.999629568877652 18.00003979374261 0  -5.999436278825476 18.00006099659469 0  -4.999232782696793 18.00008373313038 0  -3.99922528990963 18.00001370910651 0  -2.999230059039491 17.99994348935503 0  -1.999412187344173 17.99995991607604 0  -0.9995851376298964 17.99997421081468 0  0.0002462715145258659 17.9999866350785 0  1.000077466002688 17.99999747782097 0  1.99990387460597 18.00000705405071 0  2.99972071287323 18.00001571481535 0  3.999714844326974 18.00001009812951 0  4.999721708136063 18.00000412486878 0  5.999803365406249 18.00000245958 0  6.999874504425637 18.00000132545171 0  7.999938898674607 18.00000056629636 0  9 18 0  -9 20 0  -7.999789483113622 20.0000121434587 0  -6.999575056972574 20.0000244816143 0  -5.99935265814719 20.00003719392402 0  -4.999117913499962 20.00005042816737 0  -3.999109249086151 20.00001114889168 0  -2.9991155716777 19.99997166461389 0  -1.999314339842095 19.99998496020863 0  -0.9995016438909216 19.99999743840472 0  0.0003172431635967388 20.00000927890716 0  1.000137275217157 20.00002071616623 0  1.999953445071255 20.00003203892355 0  2.999760600447674 20.00004359473357 0  3.999754760873736 20.00000941548252 0  4.99976158318819 19.99997490600924 0  5.999833202726809 19.99998158596311 0  6.999894396794434 19.99998789957894 0  7.999948851628045 19.99999399904946 0  8.999999999969271 19.99999999998952 0  -9 22 0  -7.999778233876778 22.00000387419801 0  -6.999552422626628 22.00000767251821 0  -5.999318399561642 22.00001130298784 0  -4.999071755048322 22.00001464102014 0  -3.999063064857794 22.00000922079087 0  -2.999069729392708 22.00000358828341 0  -1.999262362216242 22.00001327421136 0  -0.9994429210141957 22.00002321711293 0  0.0003836332997689829 22.00003353598895 0  1.000212536985082 22.00004441271825 0  2.000039082236543 22.00005609163723 0  2.999858477977616 22.00006888134732 0  3.999853593706329 22.00000859045995 0  4.999859429017953 21.99994799309546 0  5.999904738291206 21.99996217872894 0  6.999941243633536 21.99997533201734 0  7.999972029305303 21.99998782636775 0  9 22 0  -9 24 0  -7.999783159161058 23.9999959081577 0  -6.999562622978355 23.99999153426858 0  -5.999334606456934 23.99998658089514 0  -4.999095147025151 23.99998071999075 0  -3.999087304017489 24.00000782279182 0  -2.999093404960979 24.00003469701661 0  -1.999258691178432 24.00004055964097 0  -0.9994126550188531 24.00004749121412 0  0.0004406268377347308 24.00005556088874 0  1.000297238573172 24.00006489964586 0  2.000153329204366 24.00007570017375 0  3.000005017590968 24.000088217888 0  4.000001728686859 24.00000771373635 0  5.000005890150876 23.99992691741528 0  6.000011483641857 23.99994690227362 0  7.000010965323733 23.99996540118368 0  8.000006464512827 23.99998293716901 0  9 24 0  -9 26 0  -7.999802861873393 25.99998907004586 0  -6.999602735564914 25.99997771305769 0  -5.999396573399768 25.99996548781791 0  -4.999181206364629 25.99995192469008 0  -3.999174849825608 26.00000686284531 0  -2.999179718220931 26.00006155971188 0  -1.999300317755535 26.00006356940203 0  -0.9994113744999441 26.00006721173417 0  0.0004843032642616055 26.00007250818344 0  1.000384032019187 26.00007953809486 0  2.000285198127808 26.00008843841533 0  3.000185204269717 26.00009940504892 0  4.000183893937951 26.00000688127684 0  5.000185959392821 25.99991408078983 0  6.000142667673176 25.99993757125841 0  7.000096611153801 25.99995932318424 0  8.000048750718738 25.99997994126816 0  9 26 0  -9 28 0  -7.999834511461946 27.99998393982051 0  -6.999666980318006 27.99996736414343 0  -5.999495331868318 27.99994974441357 0  -4.999317427031965 27.99993052609485 0  -3.99931297764662 28.00000626277733 0  -2.999316165662413 28.00008174704814 0  -1.999380123171659 28.00008004757675 0  -0.9994370342737174 28.00008031450045 0  0.0005117783768402352 28.00008252081807 0  1.000465083319614 28.00008669312802 0  2.000421721820218 28.00009291130635 0  3.000380590650482 28.00010130859702 0  4.000381410209068 28.00000618614678 0  5.000381190648958 27.9999108007933 0  6.000284899474145 27.99993519613567 0  7.000189464731702 27.999957
[...]
<PointData  Vectors="f_44-2"> 
<DataArray  type="Float64"  Name="f_44-2"  NumberOfComponents="3" format="ascii">0.0000000000000000e+00 0.0000000000000000e+00 0.0000000000000000e+00  0.0000000000000000e+00 0.0000000000000000e+00 0.0000000000000000e+00  0.0000000000000000e+00 0.0000000000000000e+00 0.0000000000000000e+00  0.0000000000000000e+00 0.0000000000000000e+00 0.0000000000000000e+00  0.0000000000000000e+00 0.0000000000000000e+00 0.0000000000000000e+00  0.0000000000000000e+00 0.0000000000000000e+00 0.0000000000000000e+00  0.0000000000000000e+00 0.0000000000000000e+00 0.0000000000000000e+00  0.0000000000000000e+00 0.0000000000000000e+00 0.0000000000000000e+00  0.0000000000000000e+00 0.0000000000000000e+00 0.0000000000000000e+00  0.0000000000000000e+00 0.0000000000000000e+00 0.0000000000000000e+00  0.0000000000000000e+00 0.0000000000000000e+00 0.0000000000000000e+00  0.0000000000000000e+00 0.0000000000000000e+00 0.0000000000000000e+00  0.0000000000000000e+00 0.0000000000000000e+00 0.0000000000000000e+00  0.0000000000000000e+00 0.0000000000000000e+00 0.0000000000000000e+00  0.0000000000000000e+00 0.0000000000000000e+00 0.0000000000000000e+00  0.0000000000000000e+00 0.0000000000000000e+00 0.0000000000000000e+00  0.0000000000000000e+00 0.0000000000000000e+00 0.0000000000000000e+00  0.0000000000000000e+00 0.0000000000000000e+00 0.0000000000000000e+00  0.0000000000000000e+00 0.0000000000000000e+00 0.0000000000000000e+00  0.0000000000000000e+00 0.0000000000000000e+00 0.0000000000000000e+00  9.4143101661240308e-05 1.3770355077397391e-04 0.0000000000000000e+00  1.9760327471549704e-04 2.5875369643182504e-04 0.0000000000000000e+00  3.3183835981735033e-04 3.4964578845473015e-04 0.0000000000000000e+00  5.4553338590954006e-04 4.0453139476592077e-04 0.0000000000000000e+00  3.2834079143493255e-04 3.0192540796050764e-04 0.0000000000000000e+00  1.0382268641107010e-04 2.0605938703511487e-04 0.0000000000000000e+00  -7.4394029920749405e-06 1.1672836370406026e-04 0.0000000000000000e+00  -2.9414826181795106e-05 4.6119159141187583e-05 0.0000000000000000e+00  4.3956554623842664e-06 1.5071589248955709e-05 0.0000000000000000e+00  4.2342243283047803e-05 3.6182481775956213e-05 0.0000000000000000e+00  3.4340908491768773e-05 1.0425271949763536e-04 0.0000000000000000e+00  -5.3277858024726422e-05 1.8777149637671617e-04 0.0000000000000000e+00  -2.3090080818455173e-04 2.7700576694079254e-04 0.0000000000000000e+00  -4.8670526195228428e-04 3.1266143523995984e-04 0.0000000000000000e+00  -2.9364184344370017e-04 2.9915407886690090e-04 0.0000000000000000e+00  -1.7443547265814469e-04 2.3054258305209771e-04 0.0000000000000000e+00  -8.3194920243387802e-05 1.2473518969096666e-04 0.0000000000000000e+00  0.0000000000000000e+00 0.0000000000000000e+00 0.0000000000000000e+00  0.0000000000000000e+00 0.0000000000000000e+00 0.0000000000000000e+00  1.5101858616246516e-04 3.4202218542280633e-04 0.0000000000000000e+00  2.7210715162198423e-04 6.3814077170134729e-04 0.0000000000000000e+00  3.4583706156652661e-04 8.4331814729741788e-04 0.0000000000000000e+00  3.7596852771533087e-04 9.1448397283245501e-04 0.0000000000000000e+00  6.1499404379251305e-05 8.6807281202983487e-04 0.0000000000000000e+00  -1.5125009625488413e-04 6.0068255652860700e-04 0.0000000000000000e+00  -2.1062392477826024e-04 2.5225033876221764e-04 0.0000000000000000e+00  -1.3689014481423547e-04 -2.8002848537362337e-05 0.0000000000000000e+00  9.4659203991982949e-06 -1.4129208063865437e-04 0.0000000000000000e+00  1.5913806593004570e-04 -5.4005528512519951e-05 0.0000000000000000e+00  2.4405555733457855e-04 1.8287325572505692e-04 0.0000000000000000e+00  1.9621635904040692e-04 5.0350698260211157e-04 0.0000000000000000e+00  -4.8231158631070227e-06 8.2507040624576274e-04 0.0000000000000000e+00  -3.0887353186053525e-04 9.3048478092018364e-04 0.0000000000000000e+00  -2.9185438104400508e-04 8.1872429688417475e-04 0.0000000000000000e+00  -2.3700681597922286e-04 6.0986857002712767e-04 0.0000000000000000e+00  -1.3420675463254604e-04 3.2518152009614764e-04 0.0000000000000000e+00  0.0000000000000000e+00 0.0000000000000000e+00 0.0000000000000000e+00  0.0000000000000000e+00 0.0000000000000000e+00 0.0000000000000000e+00  3.2761675735049577e-04 7.2996174948416277e-04 0.0000000000000000e+00  5.3604632694403216e-04 1.3812986076860822e-03 0.0000000000000000e+00  5.3422927311985659e-04 1.8730421176637762e-03 0.0000000000000000e+00  2.9591467437451916e-04 2.1273957301156323e-03 0.0000000000000000e+00  -3.1387887612291198e-04 1.7322473125813542e-03 0.0000000000000000e+00  -5.9366842800179795e-04 9.0551532215661656e-04 0.0000000000000000e+00  -4.8978757065699528e-04 3.8544884637662639e-05 0.0000000000000000e+00  -2.2351510363918028e-04 -4.4375303804169275e-04 0.0000000000000000e+00  4.6019141223119456e-05 -5.4124944688969034e-04 0.0000000000000000e+00  2.8756853896681696e-04 -3.8556213137563508e-04 0.0000000000000000e+00  4.7002527707692250e-04 4.5163511731582925e-05 0.0000000000000000e+00  5.3526972673575263e-04 7.7211464612284139e-04 0.0000000000000000e+00  3.8789924895062328e-04 1.5249589777111586e-03 0.0000000000000000e+00  -1.3153833532036297e-04 1.8955443036334368e-03 0.0000000000000000e+00  -4.4138171768857743e-04 1.7266785253593885e-03 0.0000000000000000e+00  -4.9138879457626822e-04 1.2925223942135578e-03 0.0000000000000000e+00  -3.1084572921937490e-04 6.8760766317295787e-04 0.0000000000000000e+00  0.0000000000000000e+00 0.0000000000000000e+00 0.0000000000000000e+00  0.0000000000000000e+00 0.0000000000000000e+00 0.0000000000000000e+00  9.8096358003579962e-04 1.4324305876939835e-03 0.0000000000000000e+00  1.6409836464617712e-03 2.7628606785209211e-03 0.0000000000000000e+00  1.6686157966297745e-03 3.8523540779528916e-03 0.0000000000000000e+00  7.9653337283623876e-04 4.4714871768761731e-03 0.0000000000000000e+00  -3.7813022211326611e-04 2.6464288631841931e-03 0.0000000000000000e+00  -1.6766236181420540e-04 4.9982473616346401e-04 0.0000000000000000e+00  2.6750535452478455e-04 -5.4739782471105805e-04 0.0000000000000000e+00  3.0154655883513499e-04 -6.6810882539400959e-04 0.0000000000000000e+00  3.7065540078300521e-05 -7.0313900155673811e-04 0.0000000000000000e+00  -1.6221264875411706e-04 -8.0687795076686271e-04 0.0000000000000000e+00  -8.6017531304386418e-05 -3.7093450823981022e-04 0.0000000000000000e+00  4.1631839115131272e-04 3.7251248779253166e-04 0.0000000000000000e+00  5.8019193731327244e-04 2.2090543202144004e-03 0.0000000000000000e+00  -5.7321980733715061e-04 4.2790335371175239e-03 0.0000000000000000e+00  -1.6302735836713474e-03 3.6958234204831179e-03 0.0000000000000000e+00  -1.6679881863556375e-03 2.6582300191865991e-03 0.0000000000000000e+00  -1.0087068046980379e-03 1.3808180824368701e-03 0.0000000000000000e+00  0.0000000000000000e+00 0.0000000000000000e+00 0.0000000000000000e+00  0.0000000000000000e+00 0.0000000000000000e+00 0.0000000000000000e+00  2.9182464969227028e-03 2.5430282446814128e-03 0.0000000000000000e+00  5.2756205830879243e-03 5.1083656298599482e-03 0.0000000000000000e+00  6.4019926861872412e-03 7.7134287919473458e-03 0.0000000000000000e+00  5.3642748653899815e-03 1.0364612961568922e-02 0.0000000000000000e+00  3.5026931148295086e-03 4.4764974960424045e-03 0.0000000000000000e+00  3.7938978682755097e-03 -5.9247735237136104e-04 0.0000000000000000e+00  3.0343788863756854e-03 2.7333841606403704e-04 0.0000000000000000e+00  1.3998163379611386e-03 5.5168076917469239e-04 0.0000000000000000e+00  1.9431813728409039e-04 6.1949498176617308e-04 0.0000000000000000e+00  -1.0010728876624182e-03 6.1493497598045772e-04 0.0000000000000000e+00  -2.5889655230645655e-03 6.4810557440806089e-04 0.0000000000000000e+00  -3.9917136065618381e-03 -1.1590667211558441e-03 0.0000000000000000e+00  -3.8303920104109093e-03 3.6348719633119584e-03 0.0000000000000000e+00  -5.9383112377764495e-03 9.9503742898812159e-03 0.0000000000000000e+00  -6.8967482208080475e-03 7.4826573849158581e-03 0.0000000000000000e+00  -5.6326995136737031e-03 4.9832923330878102e-03 0.0000000000000000e+00  -3.1043450902990626e-03 2.4876998706645399e-03 0.0000000000000000e+00  0.0000000000000000e+00 0.0000000000000000e+00 0.0000000000000000e+00  0.0000000000000000e+00 0.0000000000000000e+00 0.0000000000000000e+00  7.0997998914906785e-03 3.5646746724721148e-03 0.0000000000000000e+00  1.3835534819128772e-02 7.2954542822164454e-03 0.0000000000000000e+00  1.9794430606521467e-02 1.1390887134449384e-02 0.0000000000000000e+00  2.4465774521222377e-02 1.6127937485303070e-02 0.0000000000000000e+00  2.3505977511564663e-02 5.4024493904987576e-03 0.0000000000000000e+00  2.4345525887141423e-02 -5.2201477128311123e-03 0.0000000000000000e+00  1.6724862576294044e-02 -3.9391219678818149e-03 0.0000000000000000e+00  8.2501090415533530e-03 -3.2436738574227056e-03 0.0000000000000000e+00  -5.4868251012955838e-04 -3.1050142164213063e-03 0.0000000000000000e+00  -9.4358296054408968e-03 -3.5454229767144813e-03 0.0000000000000000e+00  -1.8212560014800958e-02 -4.6938669017073890e-03 0.0000000000000000e+00  -2.6484711863416305e-02 -6.8729084505986179e-03 0.0000000000000000e+00  -2.5596467618684039e-02 4.6050231970032572e-03 0.0000000000000000e+00  -2.6212796084203051e-02 1.6173166450107392e-02 0.0000000000000000e+00  -2.1054169246123057e-02 1.1396402994930440e-02 0.0000000000000000e+00  -1.4655107854452986e-02 7.2934564230522411e-03 0.0000000000000000e+00  -7.5042180300020425e-03 3.5631259079202315e-03 0.0000000000000000e+00  0.0000000000000000e+00 0.0000000000000000e+00 0.0000000000000000e+00  0.0000000000000000e+00 0.0000000000000000e+00 0.0000000000000000e+00  1.2739277676257595e-02 3.9222374198655775e-03 0.0000000000000000e+00  2.5505469327388171e-02 8.0245130551819706e-03 0.0000000000000000e+00  3.8341629173496122e-02 1.2502726800816098e-02 0.0000000000000000e+00  5.1336422256491147e-02 1.7583746701155815e-02 0.0000000000000000e+00  5.1453835909852433e-02 5.0585968993488457e-03 0.0000000000000000e+00  5.1508130359124910e-02 -7.6263404478071608e-03 0.0000000000000000e+00  3.3828596683984601e-02 -5.8086792199770563e-03 0.0000000000000000e+00  1.6394753671944394e-02 -4.8113579897370584e-03 0.0000000000000000e+00  -9.3880368220801349e-04 -4.5127964308027289e-03 0.0000000000000000e+00  -1.8311224361852133e-02 -4.8733793262968608e-03 0.0000000000000000e+00  -3.5851701321668587e-02 -5.9129204387946112e-03 0.0000000000000000e+00  -5.3661417839849540e-02 -7.6881741308902889e-03 0.0000000000000000e+00  -5.3825063826791059e-02 5.0347255909307630e-03 0.0000000000000000e+00  -5.3917411917234259e-02 1.7677558778543708e-02 0.0000000000000000e+00  -4.0175429226589301e-02 1.2615538333653220e-02 0.0000000000000000e+00  -2.6685999455238620e-02 8.1135297379818418e-03 0.0000000000000000e+00  -1.3318098900534070e-02 3.9699248163602985e-03 0.0000000000000000e+00  0.0000000000000000e+00 0.0000000000000000e+00 0.0000000000000000e+00  0.0000000000000000e+00 0.0000000000000000e+00 0.0000000000000000e+00  1.8273435169103795e-02 3.5598824678899172e-03 0.0000000000000000e+00  3.6899355620832512e-02 7.2503054386302921e-03 0.0000000000000000e+00  5.6260410638573573e-02 1.1204060947072643e-02 0.0000000000000000e+00  7.6802191443867601e-02 1.5555874063901454e-02 0.0000000000000000e+00  7.7517469048836204e-02 4.8794186689358459e-03 0.0000000000000000e+00  7.6811163047565092e-02 -5.7381647132076974e-03 0.0000000000000000e+00  4.9943987584981378e-02 -4.3952717593269816e-03 0.0000000000000000e+00  2.4135328778644070e-02 -3.5827502199653879e-03 0.0000000000000000e+00  -1.1743347976580320e-03 -3.2829311337466325e-03 0.0000000000000000e+00  -2.6513368434211225e-02 -3.4844850821279887e-03 0.0000000000000000e+00  -5.2410518996664018e-02 -4.1882051047746156e-03 0.0000000000000000e+00  -7.9428231285092424e-02 -5.4043670782328562e-03 0.0000000000000000e+00  -8.0220113263957851e-02 5.3506509775524151e-03 0.0000000000000000e+00  -7.9556864027162943e-02 1.6115942553141131e-02 0.0000000000000000e+00  -5.8289925544868920e-02 1.1594991286128568e-02 0.0000000000000000e+00  -3.8232757194976465e-02 7.5002382441284789e-03 0.0000000000000000e+00  -1.8933874218819365e-02 3.6821193484640304e-03 0.0000000000000000e+00  0.0000000000000000e+00 0.0000000000000000e+00 0.0000000000000000e+00  0.0000000000000000e+00 0.0000000000000000e+00 0.0000000000000000e+00  2.2398479852209871e-02 2.6754348625446494e-03 0.0000000000000000e+00  4.5356721239391044e-02 5.4230091136827155e-03 0.0000000000000000e+00  6.9463357996121577e-02 8.3135358818458693e-03 0.0000000000000000e+00  9.5365505548420576e-02 1.1414380485084735e-02 0.0000000000000000e+00  9.6457045309646217e-02 4.8404703895013812e-03 0.0000000000000000e+00  9.5386480793801257e-02 -1.7229093802051539e-03 0.0000000000000000e+00  6.1824102198424068e-02 -8.5933282097687327e-04 0.0000000000000000e+00  2.9876295007297174e-02 -3.0208518886451052e-04 0.0000000000000000e+00  -1.2934044315202104e-03 -4.6378136940154754e-05 0.0000000000000000e+00  -3.2481568289328612e-02 -8.5804004914488460e-05 0.0000000000000000e+00  -6.4482883364711280e-02 -4.1269998156660728e-04 0.0000000000000000e+00  -9.8132823568407190e-02 -1.0166068453063520e-03 0.0000000000000000e+00  -9.9266145493074706e-02 5.5983852209928464e-03 0.0000000000000000e+00  -9.8205520495010343e-02 1.2195486104184640e-02 0.0000000000000000e+00  -7.1569061533418382e-02 8.8698397445571009e-03 0.0000000000000000e+00  -4.6748574484380731e-02 5.7805120843535587e-03 0.0000000000000000e+00  -2.3090747059955487e-02 2.8503292918612522e-03 0.0000000000000000e+00  0.0000000000000000e+00 0.0000000000000000e+00 0.0000000000000000e+00  0.0000000000000000e+00 0.0000000000000000e+00 0.0000000000000000e+00  2.4286838831428036e-02 1.5023888497898343e-03 0.0000000000000000e+00  4.9225057890052756e-02 3.0239421273277932e-03 0.0000000000000000e+00  7.5491017363769522e-02 4.5816655828414708e-03 0.0000000000000000e+00  1.0381131299743555e-01 6.1880662803322616e-03 0.0000000000000000e+00  1.0505986154413838e-01 4.8527439247086912e-03 0.0000000000000000e+00  1.0381569495318431e-01 3.5268518965588728e-03 0.0000000000000000e+00  6.7237992378866782e-02 3.9028767173061008e-03 0.0000000000000000e+00  3.2500414164787265e-02 4.1857129356568726e-03 0.0000000000000000e+00  -1.3396056656406880e-03 4.3715528951435148e-03 0.0000000000000000e+00  -3.5191268890508803e-02 4.4635381628244791e-03 0.0000000000000000e+00  -6.9963347196652176e-02 4.4715166988649867e-03 0.0000000000000000e+00  -1.0659746985738278e-01 4.4126410622907482e-03 0.0000000000000000e+00  -1.0786654129501738e-01 5.7352327555713302e-03 0.0000000000000000e+00  -1.0662716010983399e-01 7.0441294016432305e-03 0.0000000000000000e+00  -7.7588002014757768e-02 5.1994387842026410e-03 0.0000000000000000e+00  -5.0615880977410606e-02 3.4243003794597179e-03 0.0000000000000000e+00  -2.4980076419557108e-02 1.6991123283243950e-03 0.0000000000000000e+00  -2.5616077420967650e-10 0.0000000000000000e+00 0.0000000000000000e+00  0.0000000000000000e+00 0.0000000000000000e+00 0.0000000000000000e+00  2.3571795882981042e-02 2.5261766370669010e-04 0.0000000000000000e+00  4.7786849488603789e-02 4.8013325492918225e-04 0.0000000000000000e+00  7.3308603835806063e-02 6.5500734209061667e-04 0.0000000000000000e+00  1.0084114195685374e-01 7.4479238903663644e-04 0.0000000000000000e+00  1.0206064599180313e-01 4.9196524468229025e-03 0.0000000000000000e+00  1.0083688205793669e-01 9.1025018787526928e-03 0.0000000000000000e+00  6.5284378959030887e-02 9.0381339631674246e-03 0.0000000000000000e+00  3.1530980334803262e-02 9.0617669503667685e-03 0.0000000000000000e+00  -1.3397406357301173e-03 9.1651633178324206e-03 0.0000000000000000e+00  -3.4216851014512044e-02 9.3491098113693150e-03 0.0000000000000000e+00  -6.7989253927386722e-02 9.6232588529480551e-03 0.0000000000000000e+00  -1.0357242477591080e-01 1.0006296295357615e-02 0.0000000000000000e+00  -1.0479309814473486e-01 5.7914357746676765e-03 0.0000000000000000e+00  -1.0356146554857901e-01 1.5662622100067398e-03 0.0000000000000000e+00  -7.5342684656202905e-02 1.2508479423058495e-03 0.0000000000000000e+00  -4.9139820206468274e-02 8.6778547354172269e-04 0.0000000000000000e+00  -2.4247341983316403e-02 4.4358332926008686e-04 0.0000000000000000e+00  0.0000000000000000e+00 0.0000000000000000e+00 0.0000000000000000e+00  0.0000000000000000e+00 0.0000000000000000e+00 0.0000000000000000e+00  2.0285741236225088e-02 -8.9678829321455055e-04 0.0000000000000000e+00  4.1126125048286361e-02 -1.8531952623114828e-03 0.0000000000000000e+00  6.3090126661645526e-02 -2.9314421377672323e-03 0.0000000000000000e+00  8.6778693920300784e-02 -4.1985751702705689e-03 0.0000000000000000e+00  8.7822404616836103e-02 5.0253841171955622e-03 0.0000000000000000e+00  8.6769757423267091e-02 1.4254549397270113e-02 0.0000000000000000e+00  5.6127919058646322e-02 1.3821159655970940e-02 0.0000000000000000e+00  2.7027227496334426e-02 1.3618522177762200e-02 0.0000000000000000e+00  -1.3143986915588495e-03 1.3636292194597879e-02 0.0000000000000000e+00  -2.9658386922750947e-02 1.3873535560556892e-02 0.0000000000000000e+00  -5.8765946411372963e-02 1.4339030664406137e-02 0.0000000000000000e+00  -8.9418225149603014e-02 1.5051275584887077e-02 0.0000000000000000e+00  -9.0445100872523290e-02 5.7768809275793084e-03 0.0000000000000000e+00  -8.9373912212635701e-02 -3.5060980148037654e-03 0.0000000000000000e+00  -6.5037417181213572e-02 -2.4270487885381968e-03 0.0000000000000000e+00  -4.2424368348130369e-02 -1.5240899349831328e-03 0.0000000000000000e+00  -2.0935029248696661e-02 -7.3436283879785747e-04 0.0000000000000000e+00  0.0000000000000000e+00 0.0000000000000000e+00 0.0000000000000000e+00  0.0000000000000000e+00 0.0000000000000000e+00 0.0000000000000000e+00  1.4785804777627979e-02 -1.8077314323300248e-03 0.0000000000000000e+00  2.9976097039128763e-02 -3.6996587627804948e-03 0.0000000000000000e+00  4.5985438933898046e-02 -5.7625137334464107e-03 0.0000000000000000e+00  6.3247732607615584e-02 -8.0879351014478459e-03 0.0000000000000000e+00  6.4005755248289303e-02 5.1547980895611445e-03 0.0000000000000000e+00  6.3238814497917240e-02 1.8400382474475105e-02 0.0000000000000000e+00  4.0801739503677097e-02 1.7679666374175628e-02 0.0000000000000000e+00  1.9484538366749550e-02 1.7293104582627866e-02 0.0000000000000000e+00  -1.2793818359465550e-03 1.7228939610272938e-02 0.0000000000000000e+00  -2.2042520050652620e-02 1.7484309525267337e-02 0.0000000000000000e+00  -4.3357443865329214e-02 1.8067083414502340e-02 0.0000000000000000e+00  -6.5789920229130355e-02 1.8994691999849791e-02 0.0000000000000000e+00  -6.6514394095896753e-02 5.7043110656641522e-03 0.0000000000000000e+00  -6.5717621253618852e-02 -7.5922262280860723e-03 0.0000000000000000e+00  -4.7842510914884104e-02 -5.4003852169608440e-03 0.0000000000000000e+00  -3.1216652831422703e-02 -3.4628808072784348e-03 0.0000000000000000e+00  -1.5406811371768631e-02 -1.6907343746624213e-03 0.0000000000000000e+00  0.0000000000000000e+00 0.0000000000000000e+00 0.0000000000000000e+00  0.0000000000000000e+00 0.0000000000000000e+00 0.0000000000000000e+00  7.6702262601081117e-03 -2.3818958649499036e-03 0.0000000000000000e+00  1.5554159955013698e-02 -4.8624980677313863e-03 0.0000000000000000e+00  2.3870464847184008e-02 -7.5430450821780464e-03 0.0000000000000000e+00  3.2848203162611424e-02 -1.0529815259306673e-02 0.0000000000000000e+00  3.3248292298951869e-02 5.2940831953180766e-03 0.0000000000000000e+00  3.2844905255203824e-02 2.1118657723627528e-02 0.0000000000000000e+00  2.0990659111277319e-02 2.0200288238145452e-02 0.0000000000000000e+00  9.7252579415800598e-03 1.9679313132467725e-02 0.0000000000000000e+00  -1.2469828601705624e-03 1.9542154009006565e-02 0.0000000000000000e+00  -1.2216409654800094e-02 1.9785090854451078e-02 0.0000000000000000e+00  -2.3472821249580739e-02 2.0414476373846604e-02 0.0000000000000000e+00  -3.5312349779323751e-02 2.1446729801932362e-02 0.0000000000000000e+00  -3.5662621121936799e-02 5.5879134283286242e-03 0.0000000000000000e+00  -3.5216862742234165e-02 -1.0274536524700853e-02 0.0000000000000000e+00  -2.5655402047188247e-02 -7.3561128180