<?xml version="1.0"?>
<VTKFile type="UnstructuredGrid"  version="0.1"  >
<UnstructuredGrid>
<Piece  NumberOfPoints="589" NumberOfCells="1080">
<Points>
<DataArray  type="Float64"  NumberOfComponents="3"  format="ascii">-9 0 0  -8 0 0  -7 0 0  -6 0 0  -5 0 0  -4 0 0  -3 0 0  -2 0 0  -1 0 0  0 0 0  1 0 0  2 0 0  3 0 0  4 0 0  5 0 0  6 0 0  7 0 0  8 0 0  9 0 0  -9 2 0  -8.000006964393336 1.999989037656087 0  -7.000014624710656 1.99997946872378 0  -6.000024651145657 1.999972429939133 0  -5.000040888860227 1.999968435896482 0  -4.000023717411512 1.99997625764709 0  -3.000006090982572 1.999983913007494 0  -1.999997600859135 1.999991197006928 0  -0.9999964157905291 1.999996951290288 0  2.196331168011155e-07 1.999999442231064 0  0.9999965818638492 1.999997593188975 0  1.999996845478981 1.999991813609708 0  3.000003831182086 1.999984715931919 0  4.000018457450601 1.999977051864445 0  5.00003978939539 1.999973674355274 0  6.000024179951692 1.999974863320556 0  7.000014459978586 1.999980646123009 0  8.000006926879379 1.999989532678408 0  9 2 0  -9.000000000004983 4 0  -8.000011144949221 3.999972502361282 0  -7.000019785007145 3.999948817370245 0  -6.000024457107246 3.999932681192072 0  -5.000025474104483 3.999927658037344 0  -4.000000130062958 3.999931246396677 0  -2.999983205445639 3.999953131762082 0  -1.99997900375494 3.999981703265694 0  -0.9999858450474792 4.000004697040371 0  1.320387444485581e-06 4.000013870867058 0  0.9999882583376262 4.000006331695872 0  1.999980663358349 3.999986278101807 0  2.999984254053676 3.99995912438584 0  4.000000799135822 3.999931650153839 0  5.000026142225538 3.999921908246381 0  6.000024801848696 3.999931351811962 0  7.000020172242921 3.999948878056119 0  8.000011428547337 3.999972743138792 0  9 4 0  -9 6 0  -8.000025344186577 5.999940719978672 0  -7.000040817067685 5.999887974023228 0  -6.000038883426098 5.999848483527897 0  -5.00001737048749 5.999828705229322 0  -3.999967434204179 5.999861158226907 0  -2.999944797924901 5.9999293280346 0  -1.999953921908983 6.000000876595861 0  -0.9999765514167763 6.000040707238946 0  4.523634778445405e-07 6.000048593486259 0  0.9999796695542055 6.000035386973665 0  1.999963760310812 5.99999901648163 0  2.999957765306876 5.999937560209402 0  3.999969740881755 5.999873670147283 0  5.000012981482933 5.999841559867487 0  6.000038580613412 5.999855512728879 0  7.000042339834864 5.999891758259049 0  8.000026668117695 5.999942389934419 0  9 6 0  -9 8 0  -8.000079016194723 7.999882817640821 0  -7.000131468924479 7.99977412645605 0  -6.000131623028926 7.999685454601701 0  -5.000057431028636 7.999635794106456 0  -3.999960571937726 7.999786472002458 0  -2.999978131712727 7.999963708026487 0  -2.000014298577978 8.000050329041549 0  -1.000017419631737 8.000060505198585 0  4.070028010015174e-06 8.000063530173321 0  1.000019929424759 8.000072334199276 0  2.00001277367594 8.00003540803929 0  2.99996980061959 7.999972663444601 0  3.999955030506839 7.999817566983743 0  5.000051337403407 7.999642543580718 0  6.000139706171898 7.999690527892369 0  7.000142216255575 7.99977711302303 0  8.000085880420835 7.999884137673287 0  9 8 0  -9 10 0  -8.000238859554822 9.999791017105442 0  -7.000431233769635 9.999580304661121 0  -6.000521661638731 9.999366550512098 0  -5.000432876459778 9.999149436480309 0  -4.000279369715676 9.999635946668921 0  -3.000303944390051 10.00005444586541 0  -2.000241562006664 9.999983252342227 0  -1.000106784756536 9.999960399939908 0  -7.18102407561524e-06 9.999954801088768 0  1.000091901255824 9.999955121211126 0  2.000224329494506 9.999952053407382 0  3.000340165487145 10.00010475414727 0  4.00032465941331 9.999699830096612 0  5.000502272485048 9.999165498199982 0  6.000584083862756 9.9993712812018 0  7.000477360676732 9.999580788844611 0  8.000263195189405 9.999790584903302 0  9 10 0  -9 12 0  -8.000584261935904 11.99970627674092 0  -7.001138158928914 11.99939888933109 0  -6.001627342615176 11.99906150315045 0  -5.002009140072309 11.99867135704997 0  -4.001930539627558 11.9995581364503 0  -3.00200072737372 12.00043592531313 0  -2.001361872784334 12.00033164742058 0  -1.000652789996655 12.00027621238469 0  8.236134869106838e-05 12.00026729712766 0  1.000823640556515 12.00030691208188 0  2.001553870843745 12.00040603213516 0  3.002238966347036 12.00059194300782 0  4.002160939632181 11.99961786477288 0  5.002213315276627 11.99863556443149 0  6.001781694356489 11.9990374637735 0  7.001241820666247 11.99938351219747 0  8.000636351010643 11.99969868066832 0  9 12 0  -9 14 0  -8.001050335532007 13.99967635341468 0  -7.002102673721687 13.99933774694334 0  -6.00316040520191 13.99896790159697 0  -5.004230476382098 13.99854794945874 0  -4.004241512116581 13.99958356256082 0  -3.004247135211533 14.00063214896343 0  -2.002764587874986 14.00048496719898 0  -1.001303702655375 14.00040620841374 0  0.0001476225648694937 14.00038591778673 0  1.001600801169872 14.00042098810438 0  2.003066240968185 14.00051328923237 0  3.004551825996893 14.00066778446373 0  4.004562049034071 13.99957965918439 0  5.00457019086867 13.99849802269026 0  6.003410324281783 13.99892770286618 0  7.002267496516132 13.9993101465944 0  8.001132302879109 13.99966238770583 0  9 14 0  -9 16 0  -8.001507323646198 15.99970637640285 0  -7.00304384269201 15.99940178661191 0  -6.004641252432093 15.99907506863809 0  -5.00633634192415 15.9987148423133 0  -4.006397079448283 15.99959600865095 0  -3.006339001752923 16.00047236537988 0  -2.00408346244808 16.00036547276027 0  -1.001917582766808 16.00030304127688 0  0.0002055635064407874 16.00028373861319 0  1.002330295618545 16.0003067780532 0  2.004500894245058 16.00037240898263 0  3.006764421629653 16.00048169241052 0  4.006828412997283 15.99955136717966 0  5.006772704238223 15.99862021062523 0  6.004967419868672 15.99900733922033 0  7.003260583956342 15.9993579072288 0  8.001615464342452 15.99968477689476 0  9 16 0  -9 18 0  -8.001846393963564 17.99978029228417 0  -7.003739415773728 17.9995544522972 0  -6.005728105545188 17.99931645304648 0  -5.007866302204952 17.99906050117257 0  -4.007958193991749 17.99959839712624 0  -3.007868890672913 18.00013544864784 0  -2.005047326878338 18.00006885979918 0  -1.002362201918752 18.00002811654542 0  0.0002571391213117872 18.00001294166621 0  1.002877930719398 18.00002293838331 0  2.005567315263578 18.00005762683825 0  3.008395631425078 18.00011631213836 0  4.008489823953133 17.99953018589474 0  5.008400347103669 17.99894558750393 0  6.006126843586723 17.99923351138684 0  7.00400436489407 17.99950064253709 0  8.001978604916525 17.99975381983576 0  9 18 0  -9 20 0  -8.001997902529835 19.99987872067565 0  -7.004050231598169 19.99975578494457 0  -6.006213492616446 19.99962971433673 0  -5.008548349611705 19.99949937913741 0  -4.00865331240542 19.9995978523959 0  -3.00854893056981 19.99969538547783 0  -2.005469543062529 19.99966940628037 0  -1.0025456122208 19.99965147947815 0  0.0003028676410551739 19.99964201812807 0  1.003153019385156 19.99964087512819 0  2.006081952495568 19.99964736323379 0  3.009169646096372 19.99966020512502 0  4.009276516848675 19.99951961734611 0  5.009171325118462 19.99938003529059 0  6.006678163212039 19.99954294136106 0  7.00435879896984 19.99969923541417 0  8.002151824267386 19.99985083513744 0  8.999999999981011 19.99999999999385 0  -9 22 0  -8.001930728142577 21.99998375694141 0  -7.00391523593991 21.9999696566912 0  -6.006009001826365 21.99996004468052 0  -5.008270885062262 21.99995767643946 0  -4.008373671697263 21.99959311311265 0  -3.008271019084078 21.99922749905974 0  -2.005274119361625 21.99923792745551 0  -1.002429179880368 21.9992411823858 0  0.0003419285540069037 21.99923802415215 0  1.003114983191823 21.99922847699401 0  2.005965772887531 21.99921184304089 0  3.008972465302791 21.99918668856145 0  4.00907587236934 21.99951624281019 0  5.008970354796936 21.99984630075107 0  6.006530436230721 21.99987880788111 0  7.004261352654406 21.999916585439 0  8.002103332182992 21.99995754714996 0  9 22 0  -9 24 0  -8.001647420437264 24.00008022626146 0  -7.003341062763456 24.0001655802322 0  -6.005128470920434 24.00026140035917 0  -5.007059726321038 24.00037346136747 0  -4.007148247434524 23.99958435662678 0  -3.007060590816449 23.9987942771215 0  -2.004474940049831 23.99883498164159 0  -1.002019302043613 23.99885638734245 0  0.0003733159685708673 23.99885943494255 0  1.002768120422036 23.99884426504963 0  2.005230341128386 23.99881022221883 0  3.007827040477737 23.99875584940414 0  4.007914028527493 23.99951817582832 0  5.007820902686816 24.00028071400509 0  6.005695675983014 24.00019356345619 0  7.003717453584537 24.00012117566309 0  8.00183508625477 24.00005827027146 0  9 24 0  -9 26 0  -8.001178056250925 26.00015620931236 0  -7.002389542627874 26.00031965774703 0  -6.00366882540124 26.00049780025065 0  -5.005051953821939 26.00069853935071 0  -4.005116957413126 25.99957210185582 0  -3.005054325658792 25.99844487180751 0  -2.003159673455125 25.99850885711988 0  -1.001359132941859 25.99854465465074 0  0.0003961307380162527 25.99855334236545 0  1.002153746230485 25.99853516302767 0  2.003961367242857 25.99848952422441 0  3.005867909639165 25.99841499700797 0  4.005928825556221 25.99952365078743 0  5.005857844844612 26.00063230050673 0  6.004269245554996 26.00044925995096 0  7.002787921569496 26.00028783917742 0  8.001376669825456 26.00014046216957 0  9 26 0  -9 28 0  -8.000573607404306 28.00020326310449 0  -7.001164357864345 28.00041497937556 0  -6.001789926576833 28.00064382250459 0  -5.002468793495356 28.0008989141543 0  -4.002503929158655 27.99955744733347 0  -3.002472914680825 27.99821549816783 0  -2.001471836700157 27.99829508974026 0  -1.000519611873331 27.99834096169496 0  0.0004097130467304865 27.99835431368977 0  1.001341467389756 27.9983354850271 0  2.002301004414216 27.99828395540835 0  3.003314350532534 27.9981983433705 0  4.003342985615494 27.99953142576059 0  5.003301041193752 28.0008644151876 0  6.002409970626949 28.00061849495714 0  7.001575753512395 28.00039835383325 0  8.00
[...]
<PointData  Vectors="f_44-2"> 
<DataArray  type="Float64"  Name="f_44-2"  NumberOfComponents="3" format="ascii">0.0000000000000000e+00 0.0000000000000000e+00 0.0000000000000000e+00  0.0000000000000000e+00 0.0000000000000000e+00 0.0000000000000000e+00  0.0000000000000000e+00 0.0000000000000000e+00 0.0000000000000000e+00  0.0000000000000000e+00 0.0000000000000000e+00 0.0000000000000000e+00  0.0000000000000000e+00 0.0000000000000000e+00 0.0000000000000000e+00  0.0000000000000000e+00 0.0000000000000000e+00 0.0000000000000000e+00  0.0000000000000000e+00 0.0000000000000000e+00 0.0000000000000000e+00  0.0000000000000000e+00 0.0000000000000000e+00 0.0000000000000000e+00  0.0000000000000000e+00 0.0000000000000000e+00 0.0000000000000000e+00  0.0000000000000000e+00 0.0000000000000000e+00 0.0000000000000000e+00  0.0000000000000000e+00 0.0000000000000000e+00 0.0000000000000000e+00  0.0000000000000000e+00 0.0000000000000000e+00 0.0000000000000000e+00  0.0000000000000000e+00 0.0000000000000000e+00 0.0000000000000000e+00  0.0000000000000000e+00 0.0000000000000000e+00 0.0000000000000000e+00  0.0000000000000000e+00 0.0000000000000000e+00 0.0000000000000000e+00  0.0000000000000000e+00 0.0000000000000000e+00 0.0000000000000000e+00  0.0000000000000000e+00 0.0000000000000000e+00 0.0000000000000000e+00  0.0000000000000000e+00 0.0000000000000000e+00 0.0000000000000000e+00  0.0000000000000000e+00 0.0000000000000000e+00 0.0000000000000000e+00  0.0000000000000000e+00 0.0000000000000000e+00 0.0000000000000000e+00  3.8270851110933424e-05 5.4418758536058414e-05 0.0000000000000000e+00  7.9881018661685874e-05 1.0225487186066466e-04 0.0000000000000000e+00  1.3290877197830221e-04 1.3818335303682978e-04 0.0000000000000000e+00  2.1601487745347186e-04 1.5991502163652385e-04 0.0000000000000000e+00  1.3012574627160973e-04 1.1874910759422546e-04 0.0000000000000000e+00  4.2110730939917515e-05 8.0475982631300497e-05 0.0000000000000000e+00  -1.0032054221713827e-06 4.4853506949662722e-05 0.0000000000000000e+00  -8.6955383274982034e-06 1.6585382170570714e-05 0.0000000000000000e+00  5.9164387210249214e-06 3.7292676727467168e-06 0.0000000000000000e+00  2.2744133936187683e-05 1.1061807115322591e-05 0.0000000000000000e+00  2.2514761508182160e-05 3.6311503489446714e-05 0.0000000000000000e+00  -7.4276766776511820e-06 6.6858106148332300e-05 0.0000000000000000e+00  -7.0275225044961548e-05 9.7995223578258391e-05 0.0000000000000000e+00  -1.6020724392984542e-04 1.0572586692237095e-04 0.0000000000000000e+00  -9.4365734336194156e-05 1.0407463103253914e-04 0.0000000000000000e+00  -5.5359585806039449e-05 8.1371718725147273e-05 0.0000000000000000e+00  -2.6304854900825106e-05 4.4343758312691265e-05 0.0000000000000000e+00  0.0000000000000000e+00 0.0000000000000000e+00 0.0000000000000000e+00  0.0000000000000000e+00 0.0000000000000000e+00 0.0000000000000000e+00  6.3182805871941585e-05 1.3516135942305817e-04 0.0000000000000000e+00  1.1409197498070403e-04 2.5213524075198092e-04 0.0000000000000000e+00  1.4550343922240138e-04 3.3315122509380916e-04 0.0000000000000000e+00  1.5871067196948491e-04 3.6135670958739981e-04 0.0000000000000000e+00  3.5461427818824798e-05 3.4062323781658117e-04 0.0000000000000000e+00  -4.7082802395560620e-05 2.3361754869971192e-04 0.0000000000000000e+00  -6.8809427335748898e-05 9.5098680128598653e-05 0.0000000000000000e+00  -3.7806272098755444e-05 -1.6536937636001419e-05 0.0000000000000000e+00  2.1947669299642481e-05 -6.2751883497474340e-05 0.0000000000000000e+00  8.3401438826422069e-05 -3.1210753754845196e-05 0.0000000000000000e+00  1.2035083701815533e-04 5.7493952177867877e-05 0.0000000000000000e+00  1.0673159800877757e-04 1.7718804270870652e-04 0.0000000000000000e+00  3.4751366863660950e-05 2.9511625695621141e-04 0.0000000000000000e+00  -7.6932200436840453e-05 3.2619304923147590e-04 0.0000000000000000e+00  -8.1388979766007150e-05 2.9235189550103725e-04 0.0000000000000000e+00  -7.0912096557090843e-05 2.2003686461054389e-04 0.0000000000000000e+00  -4.1607725861187647e-05 1.1794364510888412e-04 0.0000000000000000e+00  0.0000000000000000e+00 0.0000000000000000e+00 0.0000000000000000e+00  0.0000000000000000e+00 0.0000000000000000e+00 0.0000000000000000e+00  1.3718059464939541e-04 2.8862080910225385e-04 0.0000000000000000e+00  2.2629293081486364e-04 5.4581663040222344e-04 0.0000000000000000e+00  2.3091505832651326e-04 7.3933167970808569e-04 0.0000000000000000e+00  1.4091838112467812e-04 8.3854975931926465e-04 0.0000000000000000e+00  -9.7781095277253404e-05 6.7858758582165423e-04 0.0000000000000000e+00  -2.0547470973026892e-04 3.4898408312454961e-04 0.0000000000000000e+00  -1.6045633397294959e-04 4.6633470625280248e-06 0.0000000000000000e+00  -5.2133153178336759e-05 -1.8567059618687757e-04 0.0000000000000000e+00  5.5974851531253722e-05 -2.2480465772277341e-04 0.0000000000000000e+00  1.5207830097920924e-04 -1.6679182834408260e-04 0.0000000000000000e+00  2.2523692725758712e-04 -4.2829480165796160e-06 0.0000000000000000e+00  2.5406626184055819e-04 2.7081044990506987e-04 0.0000000000000000e+00  2.0184575571557503e-04 5.5402205820874928e-04 0.0000000000000000e+00  6.1116589032638067e-06 6.8845734279478037e-04 0.0000000000000000e+00  -1.2814612257504667e-04 6.3449697465905932e-04 0.0000000000000000e+00  -1.6176582789513403e-04 4.7778325873249438e-04 0.0000000000000000e+00  -1.0611143339944105e-04 2.5491545089867705e-04 0.0000000000000000e+00  0.0000000000000000e+00 0.0000000000000000e+00 0.0000000000000000e+00  0.0000000000000000e+00 0.0000000000000000e+00 0.0000000000000000e+00  4.0284869850100641e-04 5.6779084804999133e-04 0.0000000000000000e+00  6.7639624554254702e-04 1.0940569945374027e-03 0.0000000000000000e+00  6.9476864136441547e-04 1.5225384433147941e-03 0.0000000000000000e+00  3.5312409383380972e-04 1.7606604483027830e-03 0.0000000000000000e+00  -1.1032831402942546e-04 1.0293573341565634e-03 0.0000000000000000e+00  -1.5998703317947947e-05 1.7362281132795126e-04 0.0000000000000000e+00  1.6499365203879882e-04 -2.3794525514905064e-04 0.0000000000000000e+00  1.8220316507115992e-04 -2.7818348604321337e-04 0.0000000000000000e+00  7.8028630714053405e-05 -2.8899595365214120e-04 0.0000000000000000e+00  -1.8156238488172544e-06 -3.3104768706445362e-04 0.0000000000000000e+00  2.6580270232600358e-05 -1.6866310486619108e-04 0.0000000000000000e+00  2.2279144703668793e-04 1.0833119256460020e-04 0.0000000000000000e+00  2.9038686570474564e-04 8.0763843549695106e-04 0.0000000000000000e+00  -1.5054737214849652e-04 1.5993517342006249e-03 0.0000000000000000e+00  -5.7733886627256523e-04 1.3874327792852501e-03 0.0000000000000000e+00  -6.0958344508163845e-04 9.9997663274433574e-04 0.0000000000000000e+00  -3.7233060398776359e-04 5.1995051354787603e-04 0.0000000000000000e+00  0.0000000000000000e+00 0.0000000000000000e+00 0.0000000000000000e+00  0.0000000000000000e+00 0.0000000000000000e+00 0.0000000000000000e+00  1.1849446802804251e-03 1.0124353932720041e-03 0.0000000000000000e+00  2.1415494907342934e-03 2.0324711213411681e-03 0.0000000000000000e+00  2.5979052450772378e-03 3.0655889563629547e-03 0.0000000000000000e+00  2.1755377335200173e-03 4.1120723513580889e-03 0.0000000000000000e+00  1.4377899923426539e-03 1.7408116844029194e-03 0.0000000000000000e+00  1.5752907400927670e-03 -2.9117253828710328e-04 0.0000000000000000e+00  1.2812154290047575e-03 8.1336085044095106e-05 0.0000000000000000e+00  6.3077644204854826e-04 2.0118713126539972e-04 0.0000000000000000e+00  1.5712799841074521e-04 2.3050548469182112e-04 0.0000000000000000e+00  -3.0946852022055259e-04 2.2608463324276293e-04 0.0000000000000000e+00  -9.2692956669923967e-04 2.3059717251955753e-04 0.0000000000000000e+00  -1.4765090197643965e-03 -4.8915866765428034e-04 0.0000000000000000e+00  -1.4093630406258506e-03 1.3475279466643678e-03 0.0000000000000000e+00  -2.2133742290553681e-03 3.7793183777215028e-03 0.0000000000000000e+00  -2.6030851713087296e-03 2.8412625386847316e-03 0.0000000000000000e+00  -2.1343627822871412e-03 1.8917509845453812e-03 0.0000000000000000e+00  -1.1781918772259658e-03 9.4424173841474435e-04 0.0000000000000000e+00  0.0000000000000000e+00 0.0000000000000000e+00 0.0000000000000000e+00  0.0000000000000000e+00 0.0000000000000000e+00 0.0000000000000000e+00  2.8767892980281979e-03 1.4253394066348086e-03 0.0000000000000000e+00  5.6018042766542951e-03 2.9162949493929261e-03 0.0000000000000000e+00  8.0041535579850366e-03 4.5514756609904101e-03 0.0000000000000000e+00  9.8717556637389573e-03 6.4406742763441320e-03 0.0000000000000000e+00  9.4996258657125063e-03 2.1008338620587346e-03 0.0000000000000000e+00  9.8638500798288228e-03 -2.1959800392290650e-03 0.0000000000000000e+00  6.8950735969873162e-03 -1.6490311682419343e-03 0.0000000000000000e+00  3.5741439432921628e-03 -1.3414486526727709e-03 0.0000000000000000e+00  1.1467859670756277e-04 -1.2598256552963899e-03 0.0000000000000000e+00  -3.3910674359648669e-03 -1.4110809034459028e-03 0.0000000000000000e+00  -6.8691394346263651e-03 -1.8445673164334073e-03 0.0000000000000000e+00  -1.0173071902069335e-02 -2.6860900970447138e-03 0.0000000000000000e+00  -9.8189303689327958e-03 1.7205217991679432e-03 0.0000000000000000e+00  -1.0031939991568361e-02 6.1639912227772937e-03 0.0000000000000000e+00  -8.0545455577487636e-03 4.3380240536098616e-03 0.0000000000000000e+00  -5.6049332818044681e-03 2.7737495881688386e-03 0.0000000000000000e+00  -2.8696959833590958e-03 1.3543699293565019e-03 0.0000000000000000e+00  0.0000000000000000e+00 0.0000000000000000e+00 0.0000000000000000e+00  0.0000000000000000e+00 0.0000000000000000e+00 0.0000000000000000e+00  5.1682612958507826e-03 1.5742590265390968e-03 0.0000000000000000e+00  1.0340762313369990e-02 3.2205860834539791e-03 0.0000000000000000e+00  1.5528929097963648e-02 5.0174434136237974e-03 0.0000000000000000e+00  2.0761106354109476e-02 7.0558669543210823e-03 0.0000000000000000e+00  2.0824900789971606e-02 1.9619461014722963e-03 0.0000000000000000e+00  2.0878509745098972e-02 -3.1975126537901496e-03 0.0000000000000000e+00  1.3931651651832846e-02 -2.4247360567047418e-03 0.0000000000000000e+00  7.0779385554490442e-03 -1.9827252757974490e-03 0.0000000000000000e+00  2.5579894564347369e-04 -1.8210149620887907e-03 0.0000000000000000e+00  -6.5940128705802908e-03 -1.9219570486965860e-03 0.0000000000000000e+00  -1.3528324641979783e-02 -2.2915283554406692e-03 0.0000000000000000e+00  -2.0595117804498880e-02 -2.9503967556404505e-03 0.0000000000000000e+00  -2.0650468177082278e-02 1.8959830389631404e-03 0.0000000000000000e+00  -2.0655695890275449e-02 6.7098643161969309e-03 0.0000000000000000e+00  -1.5377310917383263e-02 4.7822727581047159e-03 0.0000000000000000e+00  -1.0207734011967881e-02 3.0727110422990177e-03 0.0000000000000000e+00  -5.0926396812603740e-03 1.5025853901028991e-03 0.0000000000000000e+00  0.0000000000000000e+00 0.0000000000000000e+00 0.0000000000000000e+00  0.0000000000000000e+00 0.0000000000000000e+00 0.0000000000000000e+00  7.4325651230483262e-03 1.4338894759025667e-03 0.0000000000000000e+00  1.5000246156159762e-02 2.9206054111688114e-03 0.0000000000000000e+00  2.2850611574173160e-02 4.5139114141664813e-03 0.0000000000000000e+00  3.1155506824896359e-02 6.2684471278129164e-03 0.0000000000000000e+00  3.1456438381136764e-02 1.8872212580628054e-03 0.0000000000000000e+00  3.1199916475550357e-02 -2.4733686260971894e-03 0.0000000000000000e+00  2.0622031522142748e-02 -1.8855300859000129e-03 0.0000000000000000e+00  1.0467102248279814e-02 -1.5093590492376290e-03 0.0000000000000000e+00  5.0737656991111204e-04 -1.3375028438971683e-03 0.0000000000000000e+00  -9.4711398165259562e-03 -1.3639044516352973e-03 0.0000000000000000e+00  -1.9683040665321484e-02 -1.5870688365462239e-03 0.0000000000000000e+00  -3.0357367059173555e-02 -2.0089526460071974e-03 0.0000000000000000e+00  -3.0659993263959958e-02 2.0228030381199014e-03 0.0000000000000000e+00  -3.0375147282408824e-02 6.0552912996077700e-03 0.0000000000000000e+00  -2.2235162643582575e-02 4.3504974966426177e-03 0.0000000000000000e+00  -1.4574642181385211e-02 2.8112008458698072e-03 0.0000000000000000e+00  -7.2150583157184547e-03 1.3792156090838700e-03 0.0000000000000000e+00  0.0000000000000000e+00 0.0000000000000000e+00 0.0000000000000000e+00  0.0000000000000000e+00 0.0000000000000000e+00 0.0000000000000000e+00  9.1453408928131013e-03 1.0820344350416767e-03 0.0000000000000000e+00  1.8509562118897465e-02 2.1936248865788276e-03 0.0000000000000000e+00  2.8323171023273693e-02 3.3637288389350636e-03 0.0000000000000000e+00  3.8839164896820884e-02 4.6201183498809813e-03 0.0000000000000000e+00  3.9286267099823302e-02 1.8580157964007314e-03 0.0000000000000000e+00  3.8877513448263699e-02 -9.0295347097930250e-04 0.0000000000000000e+00  2.5659759100199377e-02 -5.0328710988948862e-04 0.0000000000000000e+00  1.3091320120652169e-02 -2.2564480143776779e-04 0.0000000000000000e+00  8.3491959463998769e-04 -6.7780417471735300e-05 0.0000000000000000e+00  -1.1428740251027034e-02 -2.5455372502709243e-05 0.0000000000000000e+00  -2.4019028140827289e-02 -9.4110963397109638e-05 0.0000000000000000e+00  -3.7270975751655562e-02 -2.6770108940930333e-04 0.0000000000000000e+00  -3.7708622743623472e-02 2.1112645217031202e-03 0.0000000000000000e+00  -3.7276934251607885e-02 4.4802780578340751e-03 0.0000000000000000e+00  -2.7141313408817119e-02 3.2544538200355152e-03 0.0000000000000000e+00  -1.7716578027216944e-02 2.1189133719646692e-03 0.0000000000000000e+00  -8.7472812753501428e-03 1.0442153820854978e-03 0.0000000000000000e+00  0.0000000000000000e+00 0.0000000000000000e+00 0.0000000000000000e+00  0.0000000000000000e+00 0.0000000000000000e+00 0.0000000000000000e+00  9.9726034254650920e-03 6.1211897751476080e-04 0.0000000000000000e+00  2.0201576925263517e-02 1.2323256800903803e-03 0.0000000000000000e+00  3.0953021014094528e-02 1.8677786036768180e-03 0.0000000000000000e+00  4.2512374241625905e-02 2.5238995511857832e-03 0.0000000000000000e+00  4.3019869489732507e-02 1.8393519283529715e-03 0.0000000000000000e+00  4.2537000617069685e-02 1.1570124140779694e-03 0.0000000000000000e+00  2.8138344511732655e-02 1.3623759519907012e-03 0.0000000000000000e+00  1.4482632450805139e-02 1.5299606239634650e-03 0.0000000000000000e+00  1.1924213993587973e-03 1.6590720851184454e-03 0.0000000000000000e+00  -1.2095576050394845e-02 1.7520614452118215e-03 0.0000000000000000e+00  -2.5744274177490589e-02 1.8141277396897533e-03 0.0000000000000000e+00  -4.0129940021378437e-02 1.8535821088017266e-03 0.0000000000000000e+00  -4.0618971202399858e-02 2.1467738142907549e-03 0.0000000000000000e+00  -4.0124918940566377e-02 2.4332738155275670e-03 0.0000000000000000e+00  -2.9169141886795560e-02 1.7965740585684606e-03 0.0000000000000000e+00  -1.9015348325000916e-02 1.1834437554956532e-03 0.0000000000000000e+00  -9.3803569377444423e-03 5.8720032750262318e-04 0.0000000000000000e+00  3.3801425850577531e-10 2.6190127962324550e-10 0.0000000000000000e+00  0.0000000000000000e+00 0.0000000000000000e+00 0.0000000000000000e+00  9.7651596921263639e-03 1.1004551136241798e-04 0.0000000000000000e+00  1.9784091267305785e-02 2.1009215615553031e-04 0.0000000000000000e+00  3.0318425012041531e-02 2.8913073179097609e-04 0.0000000000000000e+00  4.1644877154217233e-02 3.3412850995255284e-04 0.0000000000000000e+00  4.2142475610599611e-02 1.8405728297287182e-03 0.0000000000000000e+00  4.1666978029221390e-02 3.3505962230699900e-03 0.0000000000000000e+00  2.7683450162337579e-02 3.3775262633073040e-03 0.0000000000000000e+00  1.4430116223349212e-02 3.4376823391163150e-03 0.0000000000000000e+00  1.5412342975720237e-03 3.5286462359641036e-03 0.0000000000000000e+00  -1.1337360510478560e-02 3.6516518109551981e-03 0.0000000000000000e+00  -2.4559428168260247e-02 3.8115124565013501e-03 0.0000000000000000e+00  -3.8489453552360400e-02 4.0166827235872020e-03 0.0000000000000000e+00  -3.8953519454026676e-02 2.1496153102277035e-03 0.0000000000000000e+00  -3.8466439161876337e-02 2.7913124317767278e-04 0.0000000000000000e+00  -2.7955634095718763e-02 2.4518865474167740e-04 0.0000000000000000e+00  -1.8218804067576512e-02 1.7953057944617728e-04 0.0000000000000000e+00  -8.9854086915440185e-03 9.4377398100704265e-05 0.0000000000000000e+00  0.0000000000000000e+00 0.0000000000000000e+00 0.0000000000000000e+00  0.0000000000000000e+00 0.0000000000000000e+00 0.0000000000000000e+00  8.5331755284834103e-03 -3.5203022375638086e-04 0.0000000000000000e+00  1.7284993049296926e-02 -7.2807855844270034e-04 0.0000000000000000e+00  2.6482101852303326e-02 -1.1532425134818860e-03 0.0000000000000000e+00  3.6356377279372201e-02 -1.6546009765215780e-03 0.0000000000000000e+00  3.6789440125748710e-02 1.8647946312443846e-03 0.0000000000000000e+00  3.6384952560950881e-02 5.3879975842345091e-03 0.0000000000000000e+00  2.4344921367695723e-02 5.2612367110619045e-03 0.0000000000000000e+00  1.2936923302586474e-02 5.2235640238540958e-03 0.0000000000000000e+00  1.8480736103306207e-03 5.2714680172797597e-03 0.0000000000000000e+00  -9.2241436637499792e-03 5.4053533598756266e-03 0.0000000000000000e+00  -2.0581867334617417e-02 5.6294203055912628e-03 0.0000000000000000e+00  -3.2535329388241135e-02 5.9516303184379993e-03 0.0000000000000000e+00  -3.2914390608714150e-02 2.1332050016375672e-03 0.0000000000000000e+00  -3.2490255167437296e-02 -1.6866918450675215e-03 0.0000000000000000e+00  -2.3614078236829893e-02 -1.1791210124788790e-03 0.0000000000000000e+00  -1.5389418336690212e-02 -7.4623800591530002e-04 0.0000000000000000e+00  -7.5898447590550073e-03 -3.6137256935401705e-04 0.0000000000000000e+00  0.0000000000000000e+00 0.0000000000000000e+00 0.0000000000000000e+00  0.0000000000000000e+00 0.0000000000000000e+00 0.0000000000000000e+00  6.4164681351596749e-03 -7.1821364687228966e-04 0.0000000000000000e+00  1.2992325029995987e-02 -1.4702067432144680e-03 0.0000000000000000e+00  1.9891503252373675e-02 -2.2907661834235924e-03 0.0000000000000000e+00  2.7284989324583099e-02 -3.2165223599692743e-03 0.0000000000000000e+00  2.7611730837138641e-02 1.9122950148353014e-03 0.0000000000000000e+00  2.7325249908526514e-02 7.0441566359356516e-03 0.0000000000000000e+00  1.8520934212175006e-02 6.7925969944433486e-03 0.0000000000000000e+00  1.0183318133074661e-02 6.6704641764698033e-03 0.0000000000000000e+00  2.0868769174303978e-03 6.6737445483714148e-03 0.0000000000000000e+00  -5.9882370764714624e-03 6.8018135582113039e-03 0.0000000000000000e+00  -1.4260640755234191e-02 7.0584116305407521e-03 0.0000000000000000e+00  -2.2955326469959604e-02 7.4505967461006104e-03 0.0000000000000000e+00  -2.3206438175449963e-02 2.1085798111238866e-03 0.0000000000000000e+00  -2.2887629270404612e-02 -3.2338931080209479e-03 0.0000000000000000e+00  -1.6634427620802594e-02 -2.3046964193088101e-03 0.0000000000000000e+00  -1.0840251246556309e-02 -1.4800307010117563e-03 0.0000000000000000e+00  -5.3461165297003033e-03 -7.2328380611587633e-04 0.0000000000000000e+00  0.0000000000000000e+00 0.0000000000000000e+00 0.0000000000000000e+00  0.0000000000000000e+00 0.0000000000000000e+00 0.0000000000000000e+00  3.6497873874042088e-03 -9.4948374648607563e-04 0.0000000000000000e+00  7.3837231394731917e-03 -1.9381606858249341e-03 0.0000000000000000e+00  1.1288780189263539e-02 -3.0062186115313262e-03 0.0000000000000000e+00  1.5455095748193474e-02 -4.1959075557860400e-03 0.0000000000000000e+00  1.5646163870741032e-02 1.9782762223316593e-03 0.0000000000000000e+00  1.5507281222005549e-02 8.1536305492028883e-03 0.0000000000000000e+00  1.0864397082973798e-02 7.8094156921822205e-03 0.0000000000000000e+00  6.4808167083201329e-03 7.6199297773507941e-03 0.0000000000000000e+00  2.2376430877591594e-03 7.5800816743161470e-03 0.0000000000000000e+00  -1.9809544215808471e-03 7.6887137126185248e-03 0.0000000000000000e+00  -6.2902626259543929e-03 7.9485680588629298e-03 0.0000000000000000e+00  -1.0808156921891937e-02 8.3662486056190546e-03 0.0000000000000000e+00  -1.0905840494538400e-02 2.0815565540598484e-03 0.0000000000000000e+00  -1.0722326764350594e-02 -4.2037108826923925e-03 0.0000000000000000e+00  -7.7855394465843365e-03 -3.0124156488216479e-03 0