<?xml version="1.0"?>
<VTKFile type="UnstructuredGrid"  version="0.1"  >
<UnstructuredGrid>
<Piece  NumberOfPoints="589" NumberOfCells="1080">
<Points>
<DataArray  type="Float64"  NumberOfComponents="3"  format="ascii">-9 0 0  -8 0 0  -7 0 0  -6 0 0  -5 0 0  -4 0 0  -3 0 0  -2 0 0  -1 0 0  0 0 0  1 0 0  2 0 0  3 0 0  4 0 0  5 0 0  6 0 0  7 0 0  8 0 0  9 0 0  -9 2 0  -8.000002321637462 1.999996969617801 0  -7.000004896939212 1.999994255272126 0  -6.000008244800227 1.99999210672401 0  -5.000013487022884 1.999990611283158 0  -4.000008641210605 1.999993144447536 0  -3.000003525740157 1.999995241465499 0  -2.000000825584114 1.999997076661542 0  -0.999999948627082 1.999998518118505 0  -2.079184780173236e-07 1.999999151841828 0  0.9999994400703648 1.999998739429157 0  2.000000001145708 1.999997382448923 0  3.000002163006934 1.999995689641264 0  4.000006157752278 1.999993825173386 0  5.000011808113292 1.999992942828414 0  6.000007134766128 1.999993420931238 0  7.000004213038112 1.999994999264822 0  8.000001994683943 1.999997313311011 0  9 2 0  -9 4 0  -8.000003628601988 3.999992675138421 0  -7.000006703637141 3.999986247391934 0  -6.000008912138064 3.999981601039611 0  -5.000010340431803 3.999979592240962 0  -4.000003636015382 3.999980638861277 0  -2.999998922237341 3.999986074794829 0  -1.999997214075987 3.999993134637149 0  -0.9999981159170435 3.999998778483656 0  -4.633033345990484e-07 4.000001072733002 0  0.9999971153387492 3.999999370695069 0  1.999995969039642 3.999994670907021 0  2.999997435568982 3.999988280736991 0  4.000001888771689 3.999981865106415 0  5.000008263766272 3.9999796947183 0  6.000007263026515 3.999982440969184 0  7.000005612561 3.999987055728898 0  8.000003094663905 3.999993136102299 0  9 4 0  -9 6 0  -8.000007149780364 5.999984792411978 0  -7.000011976474363 5.999971114127781 0  -6.000012700324185 5.999960545315811 0  -5.000008800420348 5.999954617009902 0  -3.999996318117841 5.99996248147183 0  -2.999990338174132 5.999978916928361 0  -1.999991880389894 5.999996138082881 0  -0.9999966207054422 6.00000574758733 0  -1.42888732860968e-06 6.000007745649964 0  0.9999943318542194 6.000004676255991 0  1.999991276492543 5.999996180937032 0  2.999990488059311 5.999981889464205 0  3.999993820431595 5.999967104304483 0  5.000004431467423 5.999959895207569 0  6.000009990202034 5.999963987139799 0  7.00001048176482 5.99997324993773 0  8.000006501633981 5.999985824990887 0  9 6 0  -9 8 0  -8.000019963177575 7.999970793402112 0  -7.000033660369348 7.999943543967313 0  -6.000034983386851 7.999920928531314 0  -5.000018615739645 7.999907392082765 0  -3.999995208066903 7.999943421363334 0  -2.999998856971749 7.999985774824797 0  -2.000006955384227 8.000006546883258 0  -1.00000718468995 8.000009113735286 0  -1.583759940475121e-06 8.000009865875512 0  1.000002783301651 8.000011803262788 0  2.000001718585783 8.000003226722715 0  2.999992426254771 7.999988462098887 0  3.999989897839399 7.999952554888215 0  5.000012915924941 7.999912208650242 0  6.000032985420439 7.999924851160496 0  7.00003323699006 7.999946196140197 0  8.000019993955185 7.999972114837381 0  9 8 0  -9 10 0  -8.000057836035491 9.999948969391944 0  -7.000104833911641 9.999897443425748 0  -6.000128024528023 9.999845005035032 0  -5.000109290447698 9.999791415416126 0  -4.000072690986342 9.99990646267924 0  -3.00007750275545 10.00000562548729 0  -2.000061688143221 9.999989324776111 0  -1.000029084957451 9.999984098447957 0  -4.866387740731771e-06 9.999982837719982 0  1.000019128134506 9.999982879282713 0  2.000050665293841 9.999982085816802 0  3.00007912959402 10.00001635307471 0  4.000076942659985 9.999923375832646 0  5.000117860829126 9.999801270068172 0  6.000135243071703 9.999850912507167 0  7.000109964787624 9.999900851540302 0  8.000060486085125 9.999950541438038 0  9 10 0  -9 12 0  -8.000139041158107 11.99992913441823 0  -7.000271203394868 11.99985500531884 0  -6.000388701760956 11.9997737084914 0  -5.000481916007786 11.9996797955465 0  -4.000463561061593 11.99988754837055 0  -3.000479438021547 12.00009327607112 0  -2.000329815392279 12.00006823860716 0  -1.000164469411389 12.00005457372954 0  6.838571694654975e-06 12.00005164345591 0  1.000179988185087 12.00005984256567 0  2.000351615402122 12.00008166399219 0  3.000514746034944 12.00012339118889 0  4.000498463197077 11.99990346641301 0  5.00050990515484 11.99968185266426 0  6.00040809808141 11.99977580379606 0  7.000283471716687 11.99985651359653 0  8.000144993786044 11.99992989969387 0  9 12 0  -9 14 0  -8.000247720445673 13.99992236194394 0  -7.000496162191999 13.99984125266283 0  -6.000746402672874 13.99975289755798 0  -5.001000472056051 13.99965293184237 0  -4.001003158614329 13.99989340843348 0  -3.001003654237987 14.00013701460969 0  -2.000660914020253 14.00010167802454 0  -1.000323736713771 14.00008212442016 0  1.118536895914056e-05 14.00007594424108 0  1.000346996254395 14.00008233195579 0  2.000686663838533 14.00010164139287 0  3.001032686730365 14.00013494354869 0  4.001036650991555 13.99989425988997 0  5.001037893635452 13.9996551673687 0  6.000772131766899 13.99975369266232 0  7.000512327188326 13.99984148969837 0  8.000255528806901 13.99992241163758 0  9 14 0  -9 16 0  -8.000353458462097 15.99992947980366 0  -7.000713833995294 15.99985649482012 0  -6.001088640106207 15.9997785463127 0  -5.001486642660354 15.99969311615998 0  -4.001500664061963 15.99989600928426 0  -3.00148667379091 16.00009776600392 0  -2.000969905034266 16.00007203013496 0  -1.000474046930993 16.0000562171739 0  1.197804289107467e-05 16.0000500056091 0  1.000498642468258 16.00005316600586 0  2.000996429334984 16.00006567935145 0  3.00151650173852 16.00008768339467 0  4.001532264974234 15.9998874681937 0  5.001519199007545 15.99968708375667 0  6.001112172299156 15.99977451528544 0  7.000729058528941 15.9998539808361 0  8.000360926186591 15.99992826558783 0  9 16 0  -9 18 0  -8.000431470041296 17.99994645800527 0  -7.000873679132749 17.99989159638319 0  -6.001337924154591 17.99983413016602 0  -5.001836626181217 17.99977285590911 0  -4.001857551677025 17.99989602936154 0  -3.001836893062762 18.00001903177898 0  -2.001195435068192 18.00000272544809 0  -1.000585110085911 17.99999194087271 0  1.020864526377593e-05 17.99998661525558 0  1.000605874479811 17.99998662347914 0  2.001217219883666 17.99999178801529 0  3.001860298398602 18.0000018471874 0  4.001882170071004 17.99988223443797 0  5.001861852483277 17.99976299210737 0  6.00135637715861 17.99982721432573 0  7.000885748697074 17.99988720286256 0  8.000437432992335 17.99994432355084 0  9 18 0  -9 20 0  -8.00046647187621 19.9999687134688 0  -7.000945275009481 19.99993711710272 0  -6.001449206288503 19.9999049488698 0  -5.001991995231054 19.99987204411395 0  -4.002015620480664 19.999895264426 0  -3.001991991232189 19.9999183281195 0  -2.001296634229637 19.9999113583003 0  -1.000636244025475 19.9999058547962 0  7.046274069374066e-06 19.99990191510248 0  1.000650473972925 19.99989948027583 0  2.001311265582169 19.99989834051268 0  3.00200725792717 19.99989812344956 0  4.002031277599888 19.99987930126524 0  5.002007914838324 19.99986074612321 0  6.001461008775759 19.99989685070109 0  7.000953073984914 19.99993189736594 0  8.000470349651472 19.99996615718471 0  8.999999999996396 20.00000000000344 0  -9 22 0  -8.000452100049545 21.99999220683787 0  -7.000916254967387 21.99998492439151 0  -6.001404885128212 21.99997871286364 0  -5.001931140489932 21.99997423218948 0  -4.00195403579894 21.99989362086666 0  -3.001931100461887 21.9998128683897 0  -2.00125816707461 21.99981413273947 0  -1.000619073426967 21.9998135212969 0  3.33378604935384e-06 21.99981120332736 0  1.000625711542316 21.99980716383615 0  2.001264707522556 21.99980120738044 0  3.001937447374267 21.99979295521767 0  4.001960171634546 21.99987796949495 0  5.001937196519765 21.99996316725777 0  6.001409579170301 21.99997071720191 0  7.000919451764731 21.99997973762165 0  8.000453717563129 21.99998965647774 0  9 22 0  -9 24 0  -8.000389459871155 24.00001365694026 0  -7.000789230085 24.00002844734311 0  -6.001209890436181 24.00004555219052 0  -5.001662553484349 24.00006624775412 0  -4.001682106245799 23.99989135188894 0  -3.001662623228696 23.99971635793475 0  -2.001084533875222 23.99972440120934 0  -1.000535246250538 23.99972800531126 0  -2.563463532059272e-07 23.99972736897004 0  1.000534574870374 23.99972250593025 0  2.001083377747865 23.99971324640367 0  3.001660630097829 23.99969923633562 0  4.001679431149952 23.99987795885275 0  5.001659568051654 24.00005682317637 0  6.001208022596149 24.00003870007329 0  7.00078815739448 24.0000239828123 0  8.000388974110361 24.00001145582447 0  9 24 0  -9 26 0  -8.000285524597542 26.00003057381687 0  -7.000578537842143 26.00006271296449 0  -6.000886707211941 26.00009802795338 0  -5.001218049110361 26.00013821998089 0  -4.001232348389707 25.999888701687 0  -3.001218350133991 25.99963912616359 0  -2.000795878309186 25.99965240667304 0  -1.000394312016324 25.9996594330257 0  -3.203905317653642e-06 25.99966042308852 0  1.000387651739121 25.99965541508247 0  2.000788453276731 25.99964426771685 0  3.001209620034882 25.99962666041457 0  4.001222605287841 25.99987898580152 0  5.001207834774855 26.00013141005703 0  6.000879579819704 26.00009305933489 0  7.000574035386813 26.00005946709705 0  8.000283346920234 26.00002897091331 0  9 26 0  -9 28 0  -8.000151572161776 28.00004123025816 0  -7.000307105685154 28.00008427559383 0  -6.000470653981709 28.00013099478049 0  -5.000646443025881 28.00018333400852 0  -4.000654243509926 27.99988591494338 0  -3.000647067029857 27.99958848323099 0  -2.000423781567698 27.99960541059203 0  -1.000211628916846 27.99961498739194 0  -5.134970211030987e-06 27.99961745051946 0  1.000201049529593 27.99961286197112 0  2.000412264714192 27.99960110838534 0  3.000633957342203 27.99958190147481 0  4.000639924310099 27.99988080133908 0  5.000631560363399 28.00017976573902 0  6.000460125068363 28.000128385909 0  7.000300383044876 28.00008256860257 0  8.00014829872485
[...]
<PointData  Vectors="f_44-2"> 
<DataArray  type="Float64"  Name="f_44-2"  NumberOfComponents="3" format="ascii">0.0000000000000000e+00 0.0000000000000000e+00 0.0000000000000000e+00  0.0000000000000000e+00 0.0000000000000000e+00 0.0000000000000000e+00  0.0000000000000000e+00 0.0000000000000000e+00 0.0000000000000000e+00  0.0000000000000000e+00 0.0000000000000000e+00 0.0000000000000000e+00  0.0000000000000000e+00 0.0000000000000000e+00 0.0000000000000000e+00  0.0000000000000000e+00 0.0000000000000000e+00 0.0000000000000000e+00  0.0000000000000000e+00 0.0000000000000000e+00 0.0000000000000000e+00  0.0000000000000000e+00 0.0000000000000000e+00 0.0000000000000000e+00  0.0000000000000000e+00 0.0000000000000000e+00 0.0000000000000000e+00  0.0000000000000000e+00 0.0000000000000000e+00 0.0000000000000000e+00  0.0000000000000000e+00 0.0000000000000000e+00 0.0000000000000000e+00  0.0000000000000000e+00 0.0000000000000000e+00 0.0000000000000000e+00  0.0000000000000000e+00 0.0000000000000000e+00 0.0000000000000000e+00  0.0000000000000000e+00 0.0000000000000000e+00 0.0000000000000000e+00  0.0000000000000000e+00 0.0000000000000000e+00 0.0000000000000000e+00  0.0000000000000000e+00 0.0000000000000000e+00 0.0000000000000000e+00  0.0000000000000000e+00 0.0000000000000000e+00 0.0000000000000000e+00  0.0000000000000000e+00 0.0000000000000000e+00 0.0000000000000000e+00  0.0000000000000000e+00 0.0000000000000000e+00 0.0000000000000000e+00  0.0000000000000000e+00 0.0000000000000000e+00 0.0000000000000000e+00  -3.6358468674365085e-05 -5.8732031281583694e-05 0.0000000000000000e+00  -7.5750719743917336e-05 -1.0958326371082280e-04 0.0000000000000000e+00  -1.2637418745841571e-04 -1.4607282358166607e-04 0.0000000000000000e+00  -2.0785609571332607e-04 -1.6509061941800406e-04 0.0000000000000000e+00  -1.1626888395733016e-04 -1.2490822127713709e-04 0.0000000000000000e+00  -2.3846338298501281e-05 -8.3486091798964202e-05 0.0000000000000000e+00  1.8918957286842156e-05 -4.3135184826008928e-05 0.0000000000000000e+00  2.1294688681991469e-05 -1.1075992550980660e-05 0.0000000000000000e+00  -1.6762816678053050e-06 3.1973532714855863e-06 0.0000000000000000e+00  -2.6633830565284084e-05 -6.2032602102185242e-06 0.0000000000000000e+00  -3.0906205080249527e-05 -3.6778022108030188e-05 0.0000000000000000e+00  4.5739336293436809e-07 -7.3727122248535304e-05 0.0000000000000000e+00  7.1515511359359135e-05 -1.1182257271385178e-04 0.0000000000000000e+00  1.7551987013074248e-04 -1.2336380798261346e-04 0.0000000000000000e+00  1.0476162385334956e-04 -1.2185740191348979e-04 0.0000000000000000e+00  6.2346898114643286e-05 -9.5446488925046940e-05 0.0000000000000000e+00  2.9930607196591150e-05 -5.2061962213663763e-05 0.0000000000000000e+00  0.0000000000000000e+00 0.0000000000000000e+00 0.0000000000000000e+00  0.0000000000000000e+00 0.0000000000000000e+00 0.0000000000000000e+00  -6.0581290618123989e-05 -1.4898524881723255e-04 0.0000000000000000e+00  -1.0657661943393683e-04 -2.7661171350515119e-04 0.0000000000000000e+00  -1.2931435437988056e-04 -3.6203191328295216e-04 0.0000000000000000e+00  -1.3026225196325722e-04 -3.8555236019567558e-04 0.0000000000000000e+00  6.6704432783532976e-06 -3.6430505016044241e-04 0.0000000000000000e+00  9.6011346937103923e-05 -2.4221891489184898e-04 0.0000000000000000e+00  1.1399408949320437e-04 -8.3507137086676604e-05 0.0000000000000000e+00  7.0070599226764168e-05 4.4701627331101682e-05 0.0000000000000000e+00  -7.2984313013542548e-06 9.6780614757310601e-05 0.0000000000000000e+00  -8.6223568430781060e-05 5.7338355506296682e-05 0.0000000000000000e+00  -1.3558562304451704e-04 -4.9801075911205131e-05 0.0000000000000000e+00  -1.2422166093730799e-04 -1.9430560523956179e-04 0.0000000000000000e+00  -4.2310367842721032e-05 -3.3846565043433034e-04 0.0000000000000000e+00  8.8621945764304401e-05 -3.8229486007317819e-04 0.0000000000000000e+00  9.6148699518974065e-05 -3.4333162396832628e-04 0.0000000000000000e+00  8.4699556295708496e-05 -2.5878540030348452e-04 0.0000000000000000e+00  4.9917686428537122e-05 -1.3883154247973411e-04 0.0000000000000000e+00  0.0000000000000000e+00 0.0000000000000000e+00 0.0000000000000000e+00  0.0000000000000000e+00 0.0000000000000000e+00 0.0000000000000000e+00  -1.4314548688351588e-04 -3.2466402552660964e-04 0.0000000000000000e+00  -2.3043277788338870e-04 -6.1245643387540939e-04 0.0000000000000000e+00  -2.1941415119996910e-04 -8.2558169518352471e-04 0.0000000000000000e+00  -9.8076788336632709e-05 -9.2809376092130151e-04 0.0000000000000000e+00  1.7539525010084881e-04 -7.4420237231542015e-04 0.0000000000000000e+00  2.9611178790247330e-04 -3.6240850995426414e-04 0.0000000000000000e+00  2.3832674312394212e-04 3.7484980947665669e-05 0.0000000000000000e+00  1.0555000512965164e-04 2.5922748920454114e-04 0.0000000000000000e+00  -2.8274885791822792e-05 3.0366110684547078e-04 0.0000000000000000e+00  -1.4911153160418841e-04 2.3307992083005898e-04 0.0000000000000000e+00  -2.4303059121640568e-04 3.6810370467153430e-05 0.0000000000000000e+00  -2.8259370637275221e-04 -2.9538524691414170e-04 0.0000000000000000e+00  -2.2371995549385186e-04 -6.3910107965570986e-04 0.0000000000000000e+00  6.5096949165801476e-06 -8.0782782645910721e-04 0.0000000000000000e+00  1.6343943430329827e-04 -7.4712990718227962e-04 0.0000000000000000e+00  2.0038072982903784e-04 -5.6374574582558417e-04 0.0000000000000000e+00  1.3044442006062326e-04 -3.0110317014767513e-04 0.0000000000000000e+00  0.0000000000000000e+00 0.0000000000000000e+00 0.0000000000000000e+00  0.0000000000000000e+00 0.0000000000000000e+00 0.0000000000000000e+00  -4.4894015953677886e-04 -6.4778564572938999e-04 0.0000000000000000e+00  -7.4749641914394042e-04 -1.2469230070424019e-03 0.0000000000000000e+00  -7.5078515406973799e-04 -1.7315384333764024e-03 0.0000000000000000e+00  -3.3600069300528042e-04 -1.9935365918897908e-03 0.0000000000000000e+00  2.0297893293317291e-04 -1.1462557294206845e-03 0.0000000000000000e+00  9.3885442977967594e-05 -1.5087140837602165e-04 0.0000000000000000e+00  -1.1862719489758345e-04 3.3188051856283639e-04 0.0000000000000000e+00  -1.4397280672375168e-04 3.8329372677527114e-04 0.0000000000000000e+00  -2.9521302546373158e-05 3.9786890430410177e-04 0.0000000000000000e+00  5.4576838583598917e-05 4.4737488270060787e-04 0.0000000000000000e+00  1.2315283416174205e-05 2.4849542595722153e-04 0.0000000000000000e+00  -2.2844824058628542e-04 -8.8164011944534573e-05 0.0000000000000000e+00  -3.1629109707037817e-04 -9.3169186731083915e-04 0.0000000000000000e+00  2.0606595120831178e-04 -1.8848897319732241e-03 0.0000000000000000e+00  7.1065164624199673e-04 -1.6416101041703090e-03 0.0000000000000000e+00  7.4353518206991028e-04 -1.1856915440850567e-03 0.0000000000000000e+00  4.5297168614001968e-04 -6.1718066406032165e-04 0.0000000000000000e+00  0.0000000000000000e+00 0.0000000000000000e+00 0.0000000000000000e+00  0.0000000000000000e+00 0.0000000000000000e+00 0.0000000000000000e+00  -1.3560523121889240e-03 -1.1653242776326874e-03 0.0000000000000000e+00  -2.4463342204722842e-03 -2.3392052181727221e-03 0.0000000000000000e+00  -2.9542276904920019e-03 -3.5275156716365040e-03 0.0000000000000000e+00  -2.4400586913063266e-03 -4.7298707961737621e-03 0.0000000000000000e+00  -1.5764375374108272e-03 -1.9737873273361602e-03 0.0000000000000000e+00  -1.7352752779190058e-03 3.9401933409631990e-04 0.0000000000000000e+00  -1.4023389192203257e-03 -2.5881286240727838e-05 0.0000000000000000e+00  -6.5340899903600384e-04 -1.6053758374376864e-04 0.0000000000000000e+00  -1.0620936958426704e-04 -1.9341671128619077e-04 0.0000000000000000e+00  4.3549709319024656e-04 -1.8990675961157787e-04 0.0000000000000000e+00  1.1594784972066511e-03 -2.0101886763118450e-04 0.0000000000000000e+00  1.7892784667793769e-03 6.5299861725566142e-04 0.0000000000000000e+00  1.6973707441417152e-03 -1.5639337028932343e-03 0.0000000000000000e+00  2.6706905591919968e-03 -4.4942021389356608e-03 0.0000000000000000e+00  3.1442151937776390e-03 -3.3862933398167436e-03 0.0000000000000000e+00  2.5801902665102791e-03 -2.2578093300871364e-03 0.0000000000000000e+00  1.4249431761010200e-03 -1.1278119845703877e-03 0.0000000000000000e+00  0.0000000000000000e+00 0.0000000000000000e+00 0.0000000000000000e+00  0.0000000000000000e+00 0.0000000000000000e+00 0.0000000000000000e+00  -3.3252384413414026e-03 -1.6482616620038908e-03 0.0000000000000000e+00  -6.4730833467088068e-03 -3.3731383641146077e-03 0.0000000000000000e+00  -9.2427713548019191e-03 -5.2662267845856089e-03 0.0000000000000000e+00  -1.1385363539942331e-02 -7.4553006105184637e-03 0.0000000000000000e+00  -1.0932619294917602e-02 -2.3931089351224106e-03 0.0000000000000000e+00  -1.1344650175655904e-02 2.6198095816510111e-03 0.0000000000000000e+00  -7.8383148903610235e-03 2.0107514514957998e-03 0.0000000000000000e+00  -3.9102093525488603e-03 1.6771286716409668e-03 0.0000000000000000e+00  1.8020614769976312e-04 1.6060640782028744e-03 0.0000000000000000e+00  4.3143129215082489e-03 1.8077987256660481e-03 0.0000000000000000e+00  8.3916015388020605e-03 2.3418796766893940e-03 0.0000000000000000e+00  1.2219062682747032e-02 3.3574287529013220e-03 0.0000000000000000e+00  1.1787602347668683e-02 -1.9984423050240520e-03 0.0000000000000000e+00  1.2075122537701176e-02 -7.3983706205909064e-03 0.0000000000000000e+00  9.7257422063719290e-03 -5.2124706711113135e-03 0.0000000000000000e+00  6.7806148766201661e-03 -3.3354839344011721e-03 0.0000000000000000e+00  3.4750129455787581e-03 -1.6293938110010558e-03 0.0000000000000000e+00  0.0000000000000000e+00 0.0000000000000000e+00 0.0000000000000000e+00  0.0000000000000000e+00 0.0000000000000000e+00 0.0000000000000000e+00  -6.0019217250204858e-03 -1.8243165284022901e-03 0.0000000000000000e+00  -1.2009139574859712e-02 -3.7334944302695526e-03 0.0000000000000000e+00  -1.8034024166221123e-02 -5.8199311798128499e-03 0.0000000000000000e+00  -2.4108218203469488e-02 -8.1908374849201035e-03 0.0000000000000000e+00  -2.4160189381094627e-02 -2.2249344936473635e-03 0.0000000000000000e+00  -2.4209324865135308e-02 3.8154592304714264e-03 0.0000000000000000e+00  -1.5965272765927591e-02 2.9464220021205921e-03 0.0000000000000000e+00  -7.8179858595027220e-03 2.4652476553592077e-03 0.0000000000000000e+00  2.9229046441176177e-04 2.3149735965953410e-03 0.0000000000000000e+00  8.4233550670052889e-03 2.4768826877453369e-03 0.0000000000000000e+00  1.6628686978693991e-02 2.9600059523968258e-03 0.0000000000000000e+00  2.4948286619527141e-02 3.7906558567962273e-03 0.0000000000000000e+00  2.5007286329505725e-02 -2.1913097526464870e-03 0.0000000000000000e+00  2.5050551588171318e-02 -8.1367423002353997e-03 0.0000000000000000e+00  1.8685350722068034e-02 -5.8013904490700980e-03 0.0000000000000000e+00  1.2420065315020037e-02 -3.7286139796902894e-03 0.0000000000000000e+00  6.2009361725627234e-03 -1.8236663443649064e-03 0.0000000000000000e+00  0.0000000000000000e+00 0.0000000000000000e+00 0.0000000000000000e+00  0.0000000000000000e+00 0.0000000000000000e+00 0.0000000000000000e+00  -8.6545893385187797e-03 -1.6606461737046405e-03 0.0000000000000000e+00  -1.7469871735669260e-02 -3.3842238103471804e-03 0.0000000000000000e+00  -2.6620549722241496e-02 -5.2348699022411807e-03 0.0000000000000000e+00  -3.6309550607561518e-02 -7.2781891138252435e-03 0.0000000000000000e+00  -3.6646389949946089e-02 -2.1308084598171740e-03 0.0000000000000000e+00  -3.6331295072510261e-02 2.9898703327188654e-03 0.0000000000000000e+00  -2.3712445223892507e-02 2.3328970679426992e-03 0.0000000000000000e+00  -1.1580936254916459e-02 1.9315788000187056e-03 0.0000000000000000e+00  3.2129100182067498e-04 1.7767837020553252e-03 0.0000000000000000e+00  1.2238634450255751e-02 1.8627132753812133e-03 0.0000000000000000e+00  2.4415733966399782e-02 2.1896239525317309e-03 0.0000000000000000e+00  3.7112724392761615e-02 2.7626157398832883e-03 0.0000000000000000e+00  3.7471808713635958e-02 -2.3324990707913216e-03 0.0000000000000000e+00  3.7159422856297676e-02 -7.4319394201411660e-03 0.0000000000000000e+00  2.7237032860409301e-02 -5.3389347255403596e-03 0.0000000000000000e+00  1.7869887112763137e-02 -3.4496752588314894e-03 0.0000000000000000e+00  8.8511128327186592e-03 -1.6924177177979106e-03 0.0000000000000000e+00  0.0000000000000000e+00 0.0000000000000000e+00 0.0000000000000000e+00  0.0000000000000000e+00 0.0000000000000000e+00 0.0000000000000000e+00  -1.0660866991108336e-02 -1.2451789229710527e-03 0.0000000000000000e+00  -2.1583989670680745e-02 -2.5262562621820354e-03 0.0000000000000000e+00  -3.3045219002200740e-02 -3.8786518306122360e-03 0.0000000000000000e+00  -4.5347744987848826e-02 -5.3366920807383028e-03 0.0000000000000000e+00  -4.5867150903943062e-02 -2.0986435015993756e-03 0.0000000000000000e+00  -4.5370183676657426e-02 1.1349097398322308e-03 0.0000000000000000e+00  -2.9519420984779596e-02 6.9840585396038248e-04 0.0000000000000000e+00  -1.4431126556269007e-02 4.1372209630597095e-04 0.0000000000000000e+00  2.8961241044816115e-04 2.7757616909160853e-04 0.0000000000000000e+00  1.5018758894266453e-02 2.8645591808628356e-04 0.0000000000000000e+00  3.0131767348367200e-02 4.3667267155477965e-04 0.0000000000000000e+00  4.6021829088527054e-02 7.2368808443181365e-04 0.0000000000000000e+00  4.6550278371637249e-02 -2.4402254451233924e-03 0.0000000000000000e+00  4.6047471723669915e-02 -5.5954800063976297e-03 0.0000000000000000e+00  3.3558345475507595e-02 -4.0608211793943805e-03 0.0000000000000000e+00  2.1920328662177000e-02 -2.6423128220045208e-03 0.0000000000000000e+00  1.0827280805528933e-02 -1.3016608540720167e-03 0.0000000000000000e+00  0.0000000000000000e+00 0.0000000000000000e+00 0.0000000000000000e+00  0.0000000000000000e+00 0.0000000000000000e+00 0.0000000000000000e+00  -1.1615364649497032e-02 -6.8616840109559372e-04 0.0000000000000000e+00  -2.3540237166623443e-02 -1.3829522051845196e-03 0.0000000000000000e+00  -3.6096092622899964e-02 -2.1000467249087879e-03 0.0000000000000000e+00  -4.9628416120317743e-02 -2.8452943950897387e-03 0.0000000000000000e+00  -5.0227723007542815e-02 -2.0883890026231282e-03 0.0000000000000000e+00  -4.9638992832358592e-02 -1.3360805238649663e-03 0.0000000000000000e+00  -3.2286935966942924e-02 -1.5420241788777556e-03 0.0000000000000000e+00  -1.5816126749680345e-02 -1.6970827984663646e-03 0.0000000000000000e+00  2.2406108161523698e-04 -1.8003546997887477e-03 0.0000000000000000e+00  1.6267859628933432e-02 -1.8538185019752204e-03 0.0000000000000000e+00  3.2749262446183654e-02 -1.8622462525327570e-03 0.0000000000000000e+00  5.0118232140927484e-02 -1.8334803085159879e-03 0.0000000000000000e+00  5.0718407243113085e-02 -2.4944848822893995e-03 0.0000000000000000e+00  5.0126617721120127e-02 -3.1491768728685531e-03 0.0000000000000000e+00  3.6465598540600760e-02 -2.3179273004724638e-03 0.0000000000000000e+00  2.3784524767435967e-02 -1.5234414365419978e-03 0.0000000000000000e+00  1.1736877509183858e-02 -7.5498952545518183e-04 0.0000000000000000e+00  -5.7372672885256345e-11 0.0000000000000000e+00 0.0000000000000000e+00  0.0000000000000000e+00 0.0000000000000000e+00 0.0000000000000000e+00  -1.1329294245693514e-02 -8.4754626568516467e-05 0.0000000000000000e+00  -2.2967161419892100e-02 -1.5842655093256902e-04 0.0000000000000000e+00  -3.5232078926750982e-02 -2.0883249891425100e-04 0.0000000000000000e+00  -4.8462421744609137e-02 -2.2153477927205523e-04 0.0000000000000000e+00  -4.9052952292605576e-02 -2.1050878086749372e-03 0.0000000000000000e+00  -4.8467208916139877e-02 -3.9933007388849593e-03 0.0000000000000000e+00  -3.1539970161795466e-02 -3.9855606614567426e-03 0.0000000000000000e+00  -1.5483602744314831e-02 -4.0145584618379920e-03 0.0000000000000000e+00  1.4402956084154264e-04 -4.0770438167968322e-03 0.0000000000000000e+00  1.5771425092310162e-02 -4.1738033185074854e-03 0.0000000000000000e+00  3.1826881816938025e-02 -4.3095935126317994e-03 0.0000000000000000e+00  4.8751956613253544e-02 -4.4932285174985667e-03 0.0000000000000000e+00  4.9333737627877107e-02 -2.5113357252646070e-03 0.0000000000000000e+00  4.8741426354881330e-02 -5.2526019438689834e-04 0.0000000000000000e+00  3.5443938972668641e-02 -4.2801910647906512e-04 0.0000000000000000e+00  2.3109507911899668e-02 -3.0049337416769096e-04 0.0000000000000000e+00  1.1400770843775183e-02 -1.5457435334519185e-04 0.0000000000000000e+00  0.0000000000000000e+00 0.0000000000000000e+00 0.0000000000000000e+00  0.0000000000000000e+00 0.0000000000000000e+00 0.0000000000000000e+00  -9.8063454276632774e-03 4.7232359553101624e-04 0.0000000000000000e+00  -1.9880403320954868e-02 9.7302357540584358e-04 0.0000000000000000e+00  -3.0497248518163399e-02 1.5315338752007314e-03 0.0000000000000000e+00  -4.1948128678425928e-02 2.1799651750916580e-03 0.0000000000000000e+00  -4.2458407444738402e-02 -2.1450322215646649e-03 0.0000000000000000e+00  -4.1951351638939698e-02 -6.4738719027535039e-03 0.0000000000000000e+00  -2.7319686387559911e-02 -6.2825675206380450e-03 0.0000000000000000e+00  -1.3440836197357506e-02 -6.1984833704441670e-03 0.0000000000000000e+00  6.5176555908101616e-05 -6.2170415047640790e-03 0.0000000000000000e+00  1.3567929419215552e-02 -6.3381026739890035e-03 0.0000000000000000e+00  2.7436750994584567e-02 -6.5660630172465857e-03 0.0000000000000000e+00  4.2051242634952683e-02 -6.9099102631560057e-03 0.0000000000000000e+00  4.2541795706262146e-02 -2.4980362634376371e-03 0.0000000000000000e+00  4.2022946944675191e-02 1.9168384600284703e-03 0.0000000000000000e+00  3.0561256432553540e-02 1.3406896641868307e-03 0.0000000000000000e+00  1.9926458592692087e-02 8.4883337393896379e-04 0.0000000000000000e+00  9.8304166604876661e-03 4.1116686031554247e-04 0.0000000000000000e+00  0.0000000000000000e+00 0.0000000000000000e+00 0.0000000000000000e+00  0.0000000000000000e+00 0.0000000000000000e+00 0.0000000000000000e+00  -7.2092695172762010e-03 9.1594397194837954e-04 0.0000000000000000e+00  -1.4614748905365856e-02 1.8726698756805320e-03 0.0000000000000000e+00  -2.2417981939662442e-02 2.9122032444403260e-03 0.0000000000000000e+00  -3.0830886773226145e-02 4.0792123119947187e-03 0.0000000000000000e+00  -3.1205961979080956e-02 -2.2034178116864772e-03 0.0000000000000000e+00  -3.0835944787194172e-02 -8.4888339792613590e-03 0.0000000000000000e+00  -2.0097360452131459e-02 -8.1511049321136980e-03 0.0000000000000000e+00  -9.9111513479971380e-03 -7.9727684188269556e-03 0.0000000000000000e+00  -2.2306623262914022e-07 -7.9479704029422945e-03 0.0000000000000000e+00  9.9054566015286307e-03 -8.0757774196840056e-03 0.0000000000000000e+00  2.0074696346388716e-02 -8.3600051208639701e-03 0.0000000000000000e+00  3.0784898096885557e-02 -8.8094541840367368e-03 0.0000000000000000e+00  3.1129301902008664e-02 -2.4622994235646411e-03 0.0000000000000000e+00  3.0740686515882718e-02 3.8866939281293265e-03 0.0000000000000000e+00  2.2362209417579427e-02 2.7722360347911231e-03 0.0000000000000000e+00  1.4583057101093626e-02 1.7814265948971346e-03 0.0000000000000000e+00  7.1950341987506473e-03 8.7094278387332680e-04 0.0000000000000000e+00  0.0000000000000000e+00 0.0000000000000000e+00 0.0000000000000000e+00  0.0000000000000000e+00 0.0000000000000000e+00 0.0000000000000000e+00  -3.8239742659231667e-03 1.1964934080335686e-03 0.0000000000000000e+00  -7.7518943695146130e-03 2.4411165893930831e-03 0.0000000000000000e+00  -1.1890587604237338e-02 3.7832896714805023e-03 0.0000000000000000e+00  -1.6351895491282586e-02 5.2750396848106808e-03 0.0000000000000000e+00  -1.6554402759732668e-02 -2.2738635660523297e-03 0.0000000000000000e+00  -1.6360992781904136e-02 -9.8241445902261249e-03 0.0000000000000000e+00  -1.0674820725150946e-02 -9.3831122432332398e-03 0.0000000000000000e+00  -5.2843712757484470e-03 -9.1339233794404170e-03 0.0000000000000000e+00  -4.3329437995569119e-05 -9.0697026109713003e-03 0.0000000000000000e+00  5.1908335629836317e-03 -9.1886749884558701e-03 0.0000000000000000e+00  1.0560386458140367e-02 -9.4941027069544385e-03 0.0000000000000000e+00  1.6211115998416036e-02 -9.9943212754865698e-03 0.0000000000000000e+00  1.6373390277393412e-02 -2.4109300628995549e-03 0.0000000000000000e+00