<?xml version="1.0"?>
<VTKFile type="UnstructuredGrid"  version="0.1"  >
<UnstructuredGrid>
<Piece  NumberOfPoints="589" NumberOfCells="1080">
<Points>
<DataArray  type="Float64"  NumberOfComponents="3"  format="ascii">-9 0 0  -8 0 0  -7 0 0  -6 0 0  -5 0 0  -4 0 0  -3 0 0  -2 0 0  -1 0 0  0 0 0  1 0 0  2 0 0  3 0 0  4 0 0  5 0 0  6 0 0  7 0 0  8 0 0  9 0 0  -9 2 0  -8.000004527712864 1.999992710322438 0  -7.000009544236317 1.999986345304267 0  -6.000016191080285 1.999981659335836 0  -5.000027069745315 1.999978992764495 0  -4.000015659817277 1.99998417509198 0  -3.000003895631304 1.999989245208502 0  -1.999998200566128 1.999994065434533 0  -0.999997352298406 1.999997862471574 0  4.923287077222173e-07 1.99999947104722 0  0.9999982028154121 1.999998159324525 0  1.999998596906586 1.999994180931735 0  3.000003603938352 1.99998925789125 0  4.000013912704734 1.999983815127268 0  5.000029001557456 1.999981023594523 0  6.000017794862201 1.999982126035279 0  7.000010690500028 1.999986335799711 0  8.000005126906636 1.999992636382895 0  9 2 0  -9.000000000004983 4 0  -8.000007100126718 3.999981722317438 0  -7.000012567221303 3.999965974637095 0  -6.000015454842497 3.999955241208249 0  -5.000015987477369 3.999951901880374 0  -3.999999077936819 3.999954134961887 0  -2.999987726642298 3.99996859631549 0  -1.999984815487559 3.999987532227969 0  -0.9999892337317015 4.000002748437052 0  2.36919687135807e-06 4.000008729449182 0  0.9999938522870342 4.000003476009856 0  1.999989056942298 3.999989743318694 0  2.999991851251415 3.999971113139048 0  4.000003435598906 3.999952079901676 0  5.000020951771059 3.999944695007784 0  6.000019180272839 3.999951823043134 0  7.000015217792621 3.999964308735252 0  8.000008506886516 3.999981021049553 0  9 4 0  -9 6 0  -8.000016204284982 5.999960615873846 0  -7.000025908084986 5.999925548426404 0  -6.000024138525434 5.999899248106747 0  -5.000009441278443 5.999886014545076 0  -3.999976101214253 5.999907319383593 0  -2.999960857112905 5.999952423070408 0  -1.999966631766124 5.999999847205724 0  -0.9999814423461139 6.000026335689676 0  3.390773168727142e-06 6.000031520237561 0  0.9999896194782136 6.000022461582745 0  1.999979111296575 5.999997668572674 0  2.999975340645863 5.999955820938997 0  3.999983747688846 5.999912163472946 0  5.000013228248859 5.99988979824771 0  6.000029329617406 5.999900090893075 0  7.000030738298838 5.999925376902183 0  8.000019070057428 5.999960340821938 0  9 6 0  -9 8 0  -8.000051306014091 7.999922250275212 0  -7.000085139588544 7.999850061622671 0  -6.000084531176071 7.999790995894072 0  -5.000034850173996 7.999757527945031 0  -3.999970471790201 7.99985696429427 0  -2.999981339456452 7.999974165027957 0  -2.000004694762581 8.000031863516808 0  -1.000006452812412 8.000039169524955 0  7.894961294364173e-06 8.000041409347446 0  1.000018378530811 8.000047215821454 0  2.000013476885307 8.000021908020802 0  2.999984667992051 7.999978907245944 0  3.999974973544135 7.999873662458574 0  5.000040132255492 7.999755085072955 0  6.000098243886555 7.999788396801446 0  7.000098559594401 7.999847742345651 0  8.000059234463434 7.999920886375754 0  9 8 0  -9 10 0  -8.000156260925676 9.999861669979305 0  -7.000282098744616 9.999722128970916 0  -6.000341175570028 9.999580428404839 0  -5.000282826988906 9.999436234459447 0  -4.000181187441973 9.999756217919046 0  -3.000195980101195 10.00003195415774 0  -2.000153970332618 9.999986816931193 0  -1.000064674374654 9.999972349189541 0  1.788689281708515e-06 9.999968807193824 0  1.000068154661091 9.999968838229581 0  2.000157068248815 9.999966173181949 0  3.000234559740896 10.00006760166238 0  4.000224274355227 9.999793759368753 0  5.000344490004808 9.999433009369925 0  6.000398257923816 9.999572632912257 0  7.000324890778602 9.999714950652953 0  8.000179000877957 9.999857577017416 0  9 10 0  -9 12 0  -8.000382739608369 11.99980599636999 0  -7.000745825988504 11.99960294029608 0  -6.001066988974617 11.99938001841068 0  -5.001318552216946 11.9991221768335 0  -4.001266425054048 11.99970362633986 0  -3.001311111749777 12.00027911107881 0  -2.000882309581012 12.00021271305165 0  -1.000408306976048 12.00017834681704 0  8.20184515961981e-05 12.00017456948989 0  1.00057548249642 12.00020285129734 0  2.001060457431344 12.00027063358582 0  3.001513715677231 12.00039626904261 0  4.001461344004931 11.99973796401966 0  5.001497929209625 11.99907409825867 0  6.001206393683714 11.999346244831 0  7.000841102602791 11.99958101826211 0  8.00043108186515 11.99979513943748 0  9 12 0  -9 14 0  -8.00068748479829 13.99978660300979 0  -7.001376691644134 13.99956333687886 0  -6.002070250780999 13.99931946542265 0  -5.002773182325744 13.99904255385343 0  -4.002780070285249 13.99971916312377 0  -3.002782033859875 14.00040417821342 0  -2.001792106669757 14.00031061269024 0  -1.000817499072109 14.00026210478944 0  0.0001498182842590682 14.00025220561806 0  1.001117339386789 14.00027900159857 0  2.002091764193731 14.00034388478036 0  3.003077962721791 14.00045030728329 0  4.003084695493072 13.99971191249645 0  5.003091756161237 13.99897774948698 0  6.002308628335278 13.99926965268982 0  7.001535690319164 13.99952987712204 0  8.000767067520751 13.99976984463751 0  9 14 0  -9 16 0  -8.000984871321235 15.99980673271877 0  -7.001989371511332 15.99960625375882 0  -6.003034770296139 15.99939122225385 0  -5.004145729028139 15.99915416014516 0  -4.004185449565333 15.99972619420796 0  -3.004145648783867 16.00029491131433 0  -2.002641865328042 16.00022867261775 0  -1.001198051958535 16.00019174476679 0  0.0002168673841348653 16.00018335041794 0  1.001632226052412 16.00020309125542 0  2.003077292206723 16.0002512693071 0  3.004583126000085 16.00032873870451 0  4.004625871267248 15.99969245082123 0  5.004589922352354 15.99905544137395 0  6.003368535293339 15.99931998677886 0  7.002212062294235 15.99955991160132 0  8.001096258930975 15.99978387704476 0  9 16 0  -9 18 0  -8.001203248713935 17.9998557212393 0  -7.002437566418263 17.99970742993791 0  -6.003735615333344 17.99955118175249 0  -5.005133248998328 17.99938319087618 0  -4.005193586814983 17.99972647630973 0  -3.005133442941057 18.00006905146108 0  -2.003253353423965 18.00002981558682 0  -1.001463760255882 18.00000759119197 0  0.0002821711779261209 18.00000229277966 0  1.002029030231868 18.00001376519359 0  2.003821345698512 18.00004181029982 0  3.005705755415323 18.00008609923017 0  4.005768818414227 17.99967755109831 0  5.005709868352215 17.99926987399805 0  6.004166981655131 17.99946894132159 0  7.002724616438765 17.99965386930603 0  8.001346616300383 17.99982931188868 0  9 18 0  -9 20 0  -8.001296892323978 19.99992075255835 0  -7.002629924539771 19.99984044681897 0  -6.004036617073235 19.99975814065909 0  -5.005557256874011 19.99967312366383 0  -4.005626213061952 19.99972470287139 0  -3.005556374405511 19.99977554035989 0  -2.003504685421638 19.99976315619391 0  -1.001555675373998 19.99975599083604 0  0.0003437628979425977 19.99975440499578 0  1.002244852102206 19.99975839513262 0  2.004198823204494 19.99976760711824 0  3.006258818807092 19.99978130368116 0  4.006330591625501 19.99966961337119 0  5.006260690019865 19.99955848190495 0  6.004561475666599 19.99967449461642 0  7.002978553275602 19.99978579157535 0  8.001470827263528 19.99989375678512 0  8.999999999982956 19.99999999999742 0  -9 22 0  -8.001245548999616 21.99999000977866 0  -7.002526727521732 21.99998146622907 0  -6.003880294435654 21.99997594932431 0  -5.00534526341225 21.99997530855108 0  -4.005412664461657 21.99972021424698 0  -3.005344160655843 21.99946434794482 0  -2.00334717609358 21.99947570400184 0  -1.001450174458012 21.99948216349976 0  0.0003987729283479135 21.99948430572761 0  1.002250063751114 21.99948222496195 0  2.004154126817635 21.99947554004557 0  3.006162987315031 21.99946338560813 0  4.006232783384259 21.99966654650864 0  5.006162288650108 21.9998699761856 0  6.004489006676613 21.99989890589627 0  7.002930619000139 21.9999310301598 0  8.00144692156033 21.99996506914122 0  9 22 0  -9 24 0  -8.001051239771613 24.00005348327575 0  -7.002133030585637 24.0001103832255 0  -6.003276786901434 24.00017425691986 0  -5.004515643842601 24.00024894601697 0  -4.004573401297934 23.99971333242401 0  -3.004514937053087 23.99917702672947 0  -2.002791572293638 23.99920776399858 0  -1.001153298336792 23.99922553671716 0  0.0004444664743842551 23.99923103063221 0  1.002045149496383 23.99922439998433 0  2.003692220256457 23.99920527091771 0  3.005430388415092 23.99917273799665 0  4.005489601898979 23.99966731492017 0  5.00542711366615 24.00016199587636 0  6.003955246006115 24.0001105230801 0  7.00258290107562 24.00006859712176 0  8.001275446681397 24.00003280095714 0  9 24 0  -9 26 0  -8.000734211445719 26.00010330143655 0  -7.001490424991031 26.00021141862731 0  -6.002291251057768 26.00032931080559 0  -5.003160434043231 26.0004622309264 0  -4.003202376269568 25.99970453999734 0  -3.00316056408216 25.99894628213332 0  -2.001897388448105 25.99899150908523 0  -1.000695192367598 25.99901785659752 0  0.0004785676812372125 25.99902608475331 0  1.001655661365871 25.9990163968365 0  2.002867906306687 25.99898843960535 0  3.004147984329958 25.99894130266009 0  4.004190134299776 25.99967088521717 0  5.004142257063545 26.00040043041165 0  6.003021709838667 26.00028394536896 0  7.001974601763883 26.00018164323908 0  8.000975461779653 26.00008855394175 0  9 26 0  -9 28 0  -8.000328563978647 28.00013387005787 0  -7.000668261087515 28.00027336627845 0  -6.001030557306172 28.0004242615026 0  -5.001427468533 28.00059262473298 0  -4.001449403059017 27.99969458239083 0  -3.001428640402954 27.99879615725601 0  -2.000761041578291 27.99885059072876 0  -1.000124131379929 27.9988824716046 0  0.0004994110415614628 27.99889262018157 0  1.001126527094052 27.99888128379699 0  2.001774204314239 27.99884813609255 0  3.002459906659861 27.99879227611229 0  4.002480727807517 27.99967644228583 0  5.002452119909324 28.00056048756213 0  6.001792703649597 28.00040063958151 0  7.001173358543779 28.00025
[...]
<PointData  Vectors="f_44-2"> 
<DataArray  type="Float64"  Name="f_44-2"  NumberOfComponents="3" format="ascii">0.0000000000000000e+00 0.0000000000000000e+00 0.0000000000000000e+00  0.0000000000000000e+00 0.0000000000000000e+00 0.0000000000000000e+00  0.0000000000000000e+00 0.0000000000000000e+00 0.0000000000000000e+00  0.0000000000000000e+00 0.0000000000000000e+00 0.0000000000000000e+00  0.0000000000000000e+00 0.0000000000000000e+00 0.0000000000000000e+00  0.0000000000000000e+00 0.0000000000000000e+00 0.0000000000000000e+00  0.0000000000000000e+00 0.0000000000000000e+00 0.0000000000000000e+00  0.0000000000000000e+00 0.0000000000000000e+00 0.0000000000000000e+00  0.0000000000000000e+00 0.0000000000000000e+00 0.0000000000000000e+00  0.0000000000000000e+00 0.0000000000000000e+00 0.0000000000000000e+00  0.0000000000000000e+00 0.0000000000000000e+00 0.0000000000000000e+00  0.0000000000000000e+00 0.0000000000000000e+00 0.0000000000000000e+00  0.0000000000000000e+00 0.0000000000000000e+00 0.0000000000000000e+00  0.0000000000000000e+00 0.0000000000000000e+00 0.0000000000000000e+00  0.0000000000000000e+00 0.0000000000000000e+00 0.0000000000000000e+00  0.0000000000000000e+00 0.0000000000000000e+00 0.0000000000000000e+00  0.0000000000000000e+00 0.0000000000000000e+00 0.0000000000000000e+00  0.0000000000000000e+00 0.0000000000000000e+00 0.0000000000000000e+00  0.0000000000000000e+00 0.0000000000000000e+00 0.0000000000000000e+00  0.0000000000000000e+00 0.0000000000000000e+00 0.0000000000000000e+00  6.4117628173205289e-05 9.8790181265435924e-05 0.0000000000000000e+00  1.3372441036873541e-04 1.8476837564855556e-04 0.0000000000000000e+00  2.2298882443242034e-04 2.4745733279412426e-04 0.0000000000000000e+00  3.6535836641469989e-04 2.8200175661115175e-04 0.0000000000000000e+00  2.1068266997222227e-04 2.1228648139166070e-04 0.0000000000000000e+00  5.3487686971324734e-05 1.4281282556904016e-04 0.0000000000000000e+00  -2.0931269289036782e-05 7.6116424094416676e-05 0.0000000000000000e+00  -2.8696359575695968e-05 2.3138307078903305e-05 0.0000000000000000e+00  5.4052931481927744e-06 -5.9256040161187297e-07 0.0000000000000000e+00  4.3036651323327824e-05 1.4426987530586309e-05 0.0000000000000000e+00  4.7125770911386059e-05 6.4030825775935026e-05 0.0000000000000000e+00  -6.7498422298795496e-06 1.2398360851235279e-04 0.0000000000000000e+00  -1.2507981837304194e-04 1.8560206795202185e-04 0.0000000000000000e+00  -2.9682265726569155e-04 2.0324639721723190e-04 0.0000000000000000e+00  -1.7650584048077057e-04 2.0034292094699805e-04 0.0000000000000000e+00  -1.0456250274740635e-04 1.5675455800393526e-04 0.0000000000000000e+00  -5.0021758278929414e-05 8.5457351631064373e-05 0.0000000000000000e+00  0.0000000000000000e+00 0.0000000000000000e+00 0.0000000000000000e+00  0.0000000000000000e+00 0.0000000000000000e+00 0.0000000000000000e+00  1.0627694105946437e-04 2.4882007904856556e-04 0.0000000000000000e+00  1.8881896079461655e-04 4.6268762215831470e-04 0.0000000000000000e+00  2.3355646750111098e-04 6.0748945117450499e-04 0.0000000000000000e+00  2.4292782144407440e-04 6.5094400878760550e-04 0.0000000000000000e+00  1.4863908695762675e-05 6.1536526312849099e-04 0.0000000000000000e+00  -1.3540316162514190e-04 4.1428292198487021e-04 0.0000000000000000e+00  -1.6903805378836327e-04 1.5290102997551590e-04 0.0000000000000000e+00  -1.0152735803212546e-04 -5.8128815392500288e-05 0.0000000000000000e+00  2.0771766647585088e-05 -1.4431298633162711e-04 0.0000000000000000e+00  1.4582404793229080e-04 -8.0900941370335038e-05 0.0000000000000000e+00  2.2293304520571051e-04 9.2933545780698304e-05 0.0000000000000000e+00  2.0139447955768951e-04 3.2738300255230824e-04 0.0000000000000000e+00  6.5509395978557777e-05 5.6036638299233736e-04 0.0000000000000000e+00  -1.4923023955155340e-04 6.2816209547235467e-04 0.0000000000000000e+00  -1.5951635979504048e-04 5.6341959162426358e-04 0.0000000000000000e+00  -1.3951248368886208e-04 4.2433517907406154e-04 0.0000000000000000e+00  -8.1963993083793843e-05 2.2754564464669570e-04 0.0000000000000000e+00  0.0000000000000000e+00 0.0000000000000000e+00 0.0000000000000000e+00  0.0000000000000000e+00 0.0000000000000000e+00 0.0000000000000000e+00  2.4336544758818949e-04 5.3861848736289140e-04 0.0000000000000000e+00  3.9513053216182052e-04 1.0168309653237112e-03 0.0000000000000000e+00  3.8558789601202749e-04 1.3728727858136071e-03 0.0000000000000000e+00  1.9514407199679230e-04 1.5479377532615069e-03 0.0000000000000000e+00  -2.5579082138566992e-04 1.2459693647985130e-03 0.0000000000000000e+00  -4.5627966226723294e-04 6.1934709648726774e-04 0.0000000000000000e+00  -3.6446732812760543e-04 -3.6538598114092137e-05 0.0000000000000000e+00  -1.5060503391472273e-04 -3.9959571032163933e-04 0.0000000000000000e+00  6.4069560312206069e-05 -4.7264361061103978e-04 0.0000000000000000e+00  2.5688422994684252e-04 -3.5839474324054316e-04 0.0000000000000000e+00  4.0577664071854099e-04 -4.0279421342044112e-05 0.0000000000000000e+00  4.6725429525834892e-04 4.9839347531351226e-04 0.0000000000000000e+00  3.6959829632026228e-04 1.0549218666050192e-03 0.0000000000000000e+00  -7.1256539390616379e-06 1.3251588041239795e-03 0.0000000000000000e+00  -2.6368589499433959e-04 1.2238270484904222e-03 0.0000000000000000e+00  -3.2462883590679732e-04 9.2269403340702037e-04 0.0000000000000000e+00  -2.1155083603765511e-04 4.9261832210200805e-04 0.0000000000000000e+00  0.0000000000000000e+00 0.0000000000000000e+00 0.0000000000000000e+00  0.0000000000000000e+00 0.0000000000000000e+00 0.0000000000000000e+00  7.4675962968548967e-04 1.0695329096121083e-03 0.0000000000000000e+00  1.2465973751558136e-03 2.0594470119784888e-03 0.0000000000000000e+00  1.2611772847152234e-03 2.8619549442051827e-03 0.0000000000000000e+00  5.8893368042790221e-04 3.2999242432574087e-03 0.0000000000000000e+00  -2.9489911549905102e-04 1.9081730140281640e-03 0.0000000000000000e+00  -1.1461317812723175e-04 2.7599874288900851e-04 0.0000000000000000e+00  2.3300305728109362e-04 -5.1198793431426950e-04 0.0000000000000000e+00  2.7055921060751328e-04 -5.9210005681026030e-04 0.0000000000000000e+00  7.7499041659144814e-05 -6.1433335175127850e-04 0.0000000000000000e+00  -6.6725785101291957e-05 -6.9602996399260701e-04 0.0000000000000000e+00  -2.9237698145189939e-06 -3.7591146276186099e-04 0.0000000000000000e+00  3.8616365469473448e-04 1.6748275092948642e-04 0.0000000000000000e+00  5.2629880495821165e-04 1.5360370680160239e-03 0.0000000000000000e+00  -3.2623057910829447e-04 3.0848429634154745e-03 0.0000000000000000e+00  -1.1501715673287261e-03 2.6831449876289415e-03 0.0000000000000000e+00  -1.2056523984869019e-03 1.9365982660251141e-03 0.0000000000000000e+00  -7.3487768066445741e-04 1.0076913369357538e-03 0.0000000000000000e+00  0.0000000000000000e+00 0.0000000000000000e+00 0.0000000000000000e+00  0.0000000000000000e+00 0.0000000000000000e+00 0.0000000000000000e+00  2.2368524272559668e-03 1.9181268451458045e-03 0.0000000000000000e+00  4.0376493218637396e-03 3.8505046556615730e-03 0.0000000000000000e+00  4.8830431022365041e-03 5.8071534058514347e-03 0.0000000000000000e+00  4.0509300935698943e-03 7.7879225257928807e-03 0.0000000000000000e+00  2.6389181514722658e-03 3.2643579359518159e-03 0.0000000000000000e+00  2.9013654898952276e-03 -6.1626234690936616e-04 0.0000000000000000e+00  2.3478117450718423e-03 8.5578051595199751e-05 0.0000000000000000e+00  1.1123539699573759e-03 3.1140907345129806e-04 0.0000000000000000e+00  2.1066592164629253e-04 3.6682967506328131e-04 0.0000000000000000e+00  -6.8068439550205892e-04 3.5971137183738811e-04 0.0000000000000000e+00  -1.8684807443831194e-03 3.7324714521768342e-04 0.0000000000000000e+00  -2.9111533516019725e-03 -1.0268141591099835e-03 0.0000000000000000e+00  -2.7657954203534198e-03 2.5703775760573836e-03 0.0000000000000000e+00  -4.3419179644024457e-03 7.3312829403941494e-03 0.0000000000000000e+00  -5.1083323122028722e-03 5.5201855285968498e-03 0.0000000000000000e+00  -4.1903283684518264e-03 3.6790096210516346e-03 0.0000000000000000e+00  -2.3137212609811745e-03 1.8373112359065680e-03 0.0000000000000000e+00  0.0000000000000000e+00 0.0000000000000000e+00 0.0000000000000000e+00  0.0000000000000000e+00 0.0000000000000000e+00 0.0000000000000000e+00  5.4665732759674708e-03 2.7080125321224794e-03 0.0000000000000000e+00  1.0642802466972197e-02 5.5415992804254280e-03 0.0000000000000000e+00  1.5200906949459341e-02 8.6510331492370314e-03 0.0000000000000000e+00  1.8734035660661320e-02 1.2246023375600266e-02 0.0000000000000000e+00  1.8008804610841905e-02 3.9515362967382228e-03 0.0000000000000000e+00  1.8695258304510499e-02 -4.2611184213561656e-03 0.0000000000000000e+00  1.2956267904459227e-02 -3.2431107175971263e-03 0.0000000000000000e+00  6.5365313618781012e-03 -2.6809063828811693e-03 0.0000000000000000e+00  -1.4646202560396636e-04 -2.5515049905691159e-03 0.0000000000000000e+00  -6.9064041223283468e-03 -2.8704930274888176e-03 0.0000000000000000e+00  -1.3588238385971512e-02 -3.7347918842948373e-03 0.0000000000000000e+00  -1.9889727413138488e-02 -5.3887799776314461e-03 0.0000000000000000e+00  -1.9185974291607972e-02 3.2847251273619357e-03 0.0000000000000000e+00  -1.9629271692576979e-02 1.2030945812975785e-02 0.0000000000000000e+00  -1.5793440717309693e-02 8.4736711474338259e-03 0.0000000000000000e+00  -1.1004051553694293e-02 5.4211372407109671e-03 0.0000000000000000e+00  -5.6377452474980086e-03 2.6479132044540778e-03 0.0000000000000000e+00  0.0000000000000000e+00 0.0000000000000000e+00 0.0000000000000000e+00  0.0000000000000000e+00 0.0000000000000000e+00 0.0000000000000000e+00  9.8481773496842760e-03 2.9936702336701877e-03 0.0000000000000000e+00  1.9705239923571261e-02 6.1259601094223026e-03 0.0000000000000000e+00  2.9592623007054081e-02 9.5477966112762595e-03 0.0000000000000000e+00  3.9563670402780068e-02 1.3434310081224159e-02 0.0000000000000000e+00  3.9669705590397772e-02 3.6815818608563087e-03 0.0000000000000000e+00  3.9761420920449958e-02 -6.1946998684684557e-03 0.0000000000000000e+00  2.6305651010598171e-02 -4.7521383858378187e-03 0.0000000000000000e+00  1.3021558800890079e-02 -3.9451627590888286e-03 0.0000000000000000e+00  -1.9876303455660592e-04 -3.6792341124787871e-03 0.0000000000000000e+00  -1.3459045744268865e-02 -3.9226719146548969e-03 0.0000000000000000e+00  -2.6856593151303756e-02 -4.6893017039516096e-03 0.0000000000000000e+00  -4.0468684963864590e-02 -6.0211371486683729e-03 0.0000000000000000e+00  -4.0562686838426794e-02 3.6127990687494860e-03 0.0000000000000000e+00  -4.0604900835482474e-02 1.3185685010499099e-02 0.0000000000000000e+00  -3.0269212904909241e-02 9.4004770159286360e-03 0.0000000000000000e+00  -2.0111632139633559e-02 6.0414048052516304e-03 0.0000000000000000e+00  -1.0038912694351159e-02 2.9547389361285399e-03 0.0000000000000000e+00  0.0000000000000000e+00 0.0000000000000000e+00 0.0000000000000000e+00  0.0000000000000000e+00 0.0000000000000000e+00 0.0000000000000000e+00  1.4181279452855937e-02 2.7235593968128438e-03 0.0000000000000000e+00  2.8625023863364542e-02 5.5494001563276612e-03 0.0000000000000000e+00  4.3615248414396554e-02 8.5817330658691845e-03 0.0000000000000000e+00  5.9483973489005651e-02 1.1926901964284196e-02 0.0000000000000000e+00  6.0050775054137258e-02 3.5333522742489374e-03 0.0000000000000000e+00  5.9546192383040132e-02 -4.8186253329572390e-03 0.0000000000000000e+00  3.9002078805249585e-02 -3.7293539979981541e-03 0.0000000000000000e+00  1.9266108808827249e-02 -3.0537354571853518e-03 0.0000000000000000e+00  -9.2164715192511029e-05 -2.7772023011226697e-03 0.0000000000000000e+00  -1.9478889968489083e-02 -2.8897153111325353e-03 0.0000000000000000e+00  -3.9300813244889911e-02 -3.3906046847391198e-03 0.0000000000000000e+00  -5.9991063137657577e-02 -4.2865029267349607e-03 0.0000000000000000e+00  -6.0571672894675174e-02 3.8519945357216442e-03 0.0000000000000000e+00  -6.0040988993139609e-02 1.1994690559667271e-02 0.0000000000000000e+00  -4.3992557702531736e-02 8.6174070121444752e-03 0.0000000000000000e+00  -2.8855502936707463e-02 5.5683201587930437e-03 0.0000000000000000e+00  -1.4290328840369610e-02 2.7318908486993290e-03 0.0000000000000000e+00  0.0000000000000000e+00 0.0000000000000000e+00 0.0000000000000000e+00  0.0000000000000000e+00 0.0000000000000000e+00 0.0000000000000000e+00  1.7453365248208938e-02 2.0439031083149340e-03 0.0000000000000000e+00  3.5332264981661775e-02 4.1456412423662679e-03 0.0000000000000000e+00  5.4084360951670733e-02 6.3620993466398457e-03 0.0000000000000000e+00  7.4202184376171362e-02 8.7482515357989073e-03 0.0000000000000000e+00  7.5058669517514207e-02 3.4784185040536712e-03 0.0000000000000000e+00  7.4258143322606190e-02 -1.7866356296814025e-03 0.0000000000000000e+00  4.8513709304733997e-02 -1.0597054601877768e-03 0.0000000000000000e+00  2.4020051798121632e-02 -5.7505378400089183e-04 0.0000000000000000e+00  1.2867453259288509e-04 -3.2797746089680452e-04 0.0000000000000000e+00  -2.3776976132267102e-02 -3.1206266561597509e-04 0.0000000000000000e+00  -4.8312962555660720e-02 -5.2033441823469309e-04 0.0000000000000000e+00  -7.4123810579994079e-02 -9.4374221084130743e-04 0.0000000000000000e+00  -7.4976611203506363e-02 4.0256435762603456e-03 0.0000000000000000e+00  -7.4146924529373423e-02 8.9781363153151241e-03 0.0000000000000000e+00  -5.4024547655432034e-02 6.5181339657652730e-03 0.0000000000000000e+00  -3.5282985763804717e-02 4.2424688503799280e-03 0.0000000000000000e+00  -1.7425843179522147e-02 2.0900974606296494e-03 0.0000000000000000e+00  0.0000000000000000e+00 0.0000000000000000e+00 0.0000000000000000e+00  0.0000000000000000e+00 0.0000000000000000e+00 0.0000000000000000e+00  1.9010618194096874e-02 1.1331025695358390e-03 0.0000000000000000e+00  3.8521539840107553e-02 2.2826370164335807e-03 0.0000000000000000e+00  5.9052225030253966e-02 3.4634003353886411e-03 0.0000000000000000e+00  8.1160456402414732e-02 4.6870435386974557e-03 0.0000000000000000e+00  8.2140350250014010e-02 3.4508081019398187e-03 0.0000000000000000e+00  8.1193008519830134e-02 2.2206643333201217e-03 0.0000000000000000e+00  5.3071291055502165e-02 2.5725349514988624e-03 0.0000000000000000e+00  2.6387476149990631e-02 2.8459301091959539e-03 0.0000000000000000e+00  4.0728182342657113e-04 3.0391765638057328e-03 0.0000000000000000e+00  -2.5576338454244223e-02 3.1558256053438516e-03 0.0000000000000000e+00  -5.2270043329631928e-02 3.2044227679883029e-03 0.0000000000000000e+00  -8.0406648797090807e-02 3.1989871759923430e-03 0.0000000000000000e+00  -8.1370876390039579e-02 4.1026350399042079e-03 0.0000000000000000e+00  -8.0406581791450576e-02 4.9945788736119453e-03 0.0000000000000000e+00  -5.8485860599432164e-02 3.6804847348669992e-03 0.0000000000000000e+00  -3.8143335518340114e-02 2.4208729062923434e-03 0.0000000000000000e+00  -1.8821272413180924e-02 1.2002716532894693e-03 0.0000000000000000e+00  1.4635400420613577e-09 4.9898823492454556e-10 0.0000000000000000e+00  0.0000000000000000e+00 0.0000000000000000e+00 0.0000000000000000e+00  1.8554856929342882e-02 1.5678800087204827e-04 0.0000000000000000e+00  3.7606605129067376e-02 2.9472318277515243e-04 0.0000000000000000e+00  5.7667742483366723e-02 3.9305589635952427e-04 0.0000000000000000e+00  7.9282126677992962e-02 4.2730488819433252e-04 0.0000000000000000e+00  8.0245470608319630e-02 3.4646203159299179e-03 0.0000000000000000e+00  7.9307908129597093e-02 6.5096277778498128e-03 0.0000000000000000e+00  5.1927540201477655e-02 6.5164352313375465e-03 0.0000000000000000e+00  2.5963598644248985e-02 6.5850612946622865e-03 0.0000000000000000e+00  6.9946845675711506e-04 6.7102734466761597e-03 0.0000000000000000e+00  -2.4559186967884977e-02 6.8936429990109471e-03 0.0000000000000000e+00  -5.0506252720494360e-02 7.1434108510112495e-03 0.0000000000000000e+00  -7.7857086238119863e-02 7.4746151089416148e-03 0.0000000000000000e+00  -7.8784359974177792e-02 4.1163897238108548e-03 0.0000000000000000e+00  -7.7824674560762766e-02 7.5163057937772774e-04 0.0000000000000000e+00  -5.6589071342892310e-02 6.2472283827566045e-04 0.0000000000000000e+00  -3.6894008060246175e-02 4.4368295942683880e-04 0.0000000000000000e+00  -1.8200435470844240e-02 2.2962358483376980e-04 0.0000000000000000e+00  0.0000000000000000e+00 0.0000000000000000e+00 0.0000000000000000e+00  0.0000000000000000e+00 0.0000000000000000e+00 0.0000000000000000e+00  1.6099294131739800e-02 -7.4416430316856107e-04 0.0000000000000000e+00  3.2628245592248674e-02 -1.5348301207090413e-03 0.0000000000000000e+00  5.0027220920807511e-02 -2.4209452805794580e-03 0.0000000000000000e+00  6.8762814136222677e-02 -3.4548427554896453e-03 0.0000000000000000e+00  6.9598586088752426e-02 3.5209924210579330e-03 0.0000000000000000e+00  6.8794767597029113e-02 1.0504212621494820e-02 0.0000000000000000e+00  4.5167083254993801e-02 1.0214956571067128e-02 0.0000000000000000e+00  2.2763180013365962e-02 1.0099629551276882e-02 0.0000000000000000e+00  9.6848993974079636e-04 1.0150535268369834e-02 0.0000000000000000e+00  -2.0813626151934238e-02 1.0367790188687952e-02 0.0000000000000000e+00  -4.3179487630246330e-02 1.0758844879040764e-02 0.0000000000000000e+00  -6.6741780227951381e-02 1.1338513589794852e-02 0.0000000000000000e+00  -6.7513261874596261e-02 4.0871039532402670e-03 0.0000000000000000e+00  -6.6672781291426494e-02 -3.1677498050062627e-03 0.0000000000000000e+00  -4.8486163170126294e-02 -2.2141906258187159e-03 0.0000000000000000e+00  -3.1612615020102638e-02 -1.4011759016139289e-03 0.0000000000000000e+00  -1.5595184645428499e-02 -6.7849727799087307e-04 0.0000000000000000e+00  0.0000000000000000e+00 0.0000000000000000e+00 0.0000000000000000e+00  0.0000000000000000e+00 0.0000000000000000e+00 0.0000000000000000e+00  1.1911637236583245e-02 -1.4589668176586336e-03 0.0000000000000000e+00  2.4136548281542710e-02 -2.9841771031553221e-03 0.0000000000000000e+00  3.6996798207048820e-02 -4.6438912529024367e-03 0.0000000000000000e+00  5.0830205032941451e-02 -6.5105474262556161e-03 0.0000000000000000e+00  5.1452967070198689e-02 3.6169926167599138e-03 0.0000000000000000e+00  5.0876423864841695e-02 1.3750293230299592e-02 0.0000000000000000e+00  3.3561979059060540e-02 1.3224184258349871e-02 0.0000000000000000e+00  1.7147352653193802e-02 1.2953680752460442e-02 0.0000000000000000e+00  1.1851686454135647e-03 1.2929863331650216e-02 0.0000000000000000e+00  -1.4758837298783507e-02 1.3151312505095004e-02 0.0000000000000000e+00  -3.1119308780313940e-02 1.3624589847435708e-02 0.0000000000000000e+00  -4.8341904246223380e-02 1.4363727745791982e-02 0.0000000000000000e+00  -4.8870001369160143e-02 4.0329477057376899e-03 0.0000000000000000e+00  -4.8236438036890601e-02 -6.2992388098494041e-03 0.0000000000000000e+00  -3.5087504979114593e-02 -4.4908694757490770e-03 0.0000000000000000e+00  -2.2880422774262249e-02 -2.8847552710679560e-03 0.0000000000000000e+00  -1.1288473039355151e-02 -1.4100260924631025e-03 0.0000000000000000e+00  0.0000000000000000e+00 0.0000000000000000e+00 0.0000000000000000e+00  0.0000000000000000e+00 0.0000000000000000e+00 0.0000000000000000e+00  6.4544811677586383e-03 -1.9091181137869937e-03 0.0000000000000000e+00  1.3073687198755844e-02 -3.8957372864221536e-03 0.0000000000000000e+00  2.0027580074873295e-02 -6.0393987428406541e-03 0.0000000000000000e+00  2.7493443053077823e-02 -8.4236920687008974e-03 0.0000000000000000e+00  2.7843825799361413e-02 3.7427046114615458e-03 0.0000000000000000e+00  2.7555547061261891e-02 1.5911711375065796e-02 0.0000000000000000e+00  1.8403795821575791e-02 1.5215360876997885e-02 0.0000000000000000e+00  9.7394609712621004e-03 1.4825689226375329e-02 0.0000000000000000e+00  1.3273169791834627e-03 1.4732374778750770e-02 0.0000000000000000e+00  -7.0631523237409954e-03 1.4932742453817928e-02 0.0000000000000000e+00  -1.5661845566068915e-02 1.5432050053186926e-02 0.0000000000000000e+00  -2.4704125967119562e-02 1.6243468525623118e-02 0.0000000000000000e+00  -2.4934006953926644e-02 3.9656360630139923e-03 0.0000000000000000e+00  -2.4569237512080819e-02 -8.3130818475578034e-03 0.0000000000000000e+00  -1.7876777958986737e-02 -5.958781643575966