<?xml version="1.0"?>
<VTKFile type="UnstructuredGrid"  version="0.1"  >
<UnstructuredGrid>
<Piece  NumberOfPoints="589" NumberOfCells="1080">
<Points>
<DataArray  type="Float64"  NumberOfComponents="3"  format="ascii">-9 0 0  -8 0 0  -7 0 0  -6 0 0  -5 0 0  -4 0 0  -3 0 0  -2 0 0  -1 0 0  0 0 0  1 0 0  2 0 0  3 0 0  4 0 0  5 0 0  6 0 0  7 0 0  8 0 0  9 0 0  -9 2 0  -8.000003155048732 1.999995594164589 0  -7.00000663104811 1.999991692500599 0  -6.000011135185884 1.999988699871767 0  -5.000018244816186 1.999986779273057 0  -4.000011258984579 1.999990235213852 0  -3.000003992671797 1.999993303879706 0  -2.000000310457933 1.999996093781008 0  -0.9999994076468603 1.999998294364067 0  -2.413959457202547e-07 1.999999266252151 0  0.9999987854208446 1.999998630479032 0  1.999999216216439 1.999996548168318 0  3.00000209233757 1.999993980807109 0  4.000007740311491 1.99999121890167 0  5.000015818433369 1.999990075779361 0  6.000009525543945 1.999990574446294 0  7.000005637346312 1.999992764085562 0  8.000002679567086 1.999996092598818 0  9 2 0  -9 4 0  -8.000005026265255 3.999989171749786 0  -7.00000914954096 3.99997974894122 0  -6.000011848380487 3.999973111666427 0  -5.000013243110716 3.999970583656601 0  -4.000003317774406 3.999972129190832 0  -2.999996515873431 3.999980458144702 0  -1.999994417412558 3.999991279399772 0  -0.9999964017488784 3.999999964003307 0  -6.258833250495679e-07 4.000003492997123 0  0.9999950394096221 4.000000853096449 0  1.99999268225993 3.999993609903286 0  2.999994381245479 3.999983791226031 0  4.000000745601215 3.999973956074188 0  5.00001020418284 3.999970752502758 0  6.000009432282558 3.999974385067935 0  7.000007552986683 3.999980972783088 0  8.000004246240792 3.999989869758227 0  9 4 0  -9 6 0  -8.000010509313393 5.999977128061819 0  -7.00001736577512 5.999956663697905 0  -6.00001777803436 5.999941086824151 0  -5.000010940346446 5.999932783128184 0  -3.999991989069855 5.9999450177716 0  -2.99998317227411 5.999970523310804 0  -1.999986124540442 5.999997244149492 0  -0.9999940573282646 6.000012118512564 0  -2.081785393211253e-06 6.000015167961907 0  0.9999907707010788 6.000010422155996 0  1.99998544529015 5.99999726419314 0  2.999983680794977 5.999975076737878 0  3.999988380704562 5.999952120786549 0  5.000004435803789 5.999940897152179 0  6.000013768611137 5.999946375492016 0  7.000015178308426 5.999959944908076 0  8.000009570709908 5.999978714299719 0  9 6 0  -9 8 0  -8.000030602289034 7.999955456298371 0  -7.000051358010663 7.999914030871353 0  -6.000052707064362 7.999879971596686 0  -5.000026420657441 7.999860299483039 0  -3.999990217974986 7.999916476664303 0  -2.999996501384167 7.999982495701476 0  -2.000009689137017 8.000014733779761 0  -1.000010551376806 8.000018505639956 0  -2.253987184945377e-06 8.000019598620502 0  1.000004084788727 8.000022722135217 0  2.000001986688027 8.00000942135982 0  2.99998692849403 7.999986668941874 0  3.999982260181717 7.999930697295998 0  5.0000176708494 7.999867665052687 0  6.000049795758482 7.999886004803624 0  7.000050870945246 7.999918119577896 0  8.000030746011172 7.99995749546822 0  9 8 0  -9 10 0  -8.000090070532 9.999921320340007 0  -7.000162965101466 9.999841947175685 0  -6.000198166752804 9.999761330364272 0  -5.000167079713897 9.999679250540824 0  -4.000109947729596 9.999859915209232 0  -3.00011861482943 10.00001543092475 0  -2.000094941047993 9.999989075303642 0  -1.000044553074503 9.999980623966394 0  -7.354910742489227e-06 9.999978574894952 0  1.000029489086686 9.999978705378343 0  2.000078221978841 9.999977662954413 0  3.000121607375504 10.00003234064332 0  4.000117159413353 9.999886576027089 0  5.000181243670268 9.999694655256931 0  6.000209998794242 9.999770551793949 0  7.00017134957957 9.999847259747419 0  8.000094396108736 9.999923768418469 0  9 10 0  -9 12 0  -8.000218191997584 11.99988997723745 0  -7.000425261402331 11.99977486976119 0  -6.000608621692432 11.99964859599336 0  -5.000752696163927 11.99950267037296 0  -4.000723564926643 11.99983106648316 0  -3.000749316144238 12.00015625910264 0  -2.000516282133085 12.00011669997487 0  -1.000257427396195 12.00009508317237 0  1.127507731645401e-05 12.00009046644103 0  1.000282854483964 12.00010348956493 0  2.000551526969123 12.00013806448834 0  3.000805685637532 12.00020402684384 0  4.00077903715776 11.99985637922756 0  5.000797328606559 11.99950598258976 0  6.000639707109751 11.99965189367976 0  7.000444989031535 11.99977722205047 0  8.000227782222341 11.99989116526039 0  9 12 0  -9 14 0  -8.000390699758896 13.99987899414497 0  -7.000782227887943 13.9997524940708 0  -6.001175935916604 13.99961452232298 0  -5.001574580739057 13.99945815753106 0  -4.001578515847898 13.99984095239468 0  -3.001580256836505 14.00022864922975 0  -2.001041101666689 14.00017259460932 0  -1.000509779749494 14.00014157652456 0  1.841901131972532e-05 14.00013182997635 0  1.000547995333853 14.00014210490516 0  2.001083170076505 14.00017297163958 0  3.001627370799878 14.0002261293778 0  4.001632658008892 13.99984260055656 0  5.001634928723218 13.99946153044799 0  6.001217555512416 13.99961564699702 0  7.000808439231717 13.99975277307825 0  8.000403380041886 13.99987902228367 0  9 14 0  -9 16 0  -8.000559752484461 15.99989000185369 0  -7.001130242010961 15.99977603453207 0  -6.00172312871559 15.99965406501933 0  -5.002351999576126 15.99952000549263 0  -4.002374068099514 15.99984582460637 0  -3.002352620476773 16.00016987472764 0  -2.00153495207069 16.00012845589115 0  -1.000749800383871 16.00010307433368 0  2.00560565131782e-05 16.00009318917956 0  1.000790907649133 16.00009843309892 0  2.001579060574676 16.00011879459125 0  3.002401869810555 16.00015453549004 0  4.00242613461591 15.99983246377123 0  5.00240560942232 15.99951012209891 0  6.001761962549476 15.99964741561201 0  7.001155410606557 15.9997718691496 0  8.000572111908841 15.99988798499384 0  9 16 0  -9 18 0  -8.000685706330435 17.99991688969052 0  -7.001388401975203 17.99983159837327 0  -6.002125957781035 17.99974199060552 0  -5.002918017965494 17.99964603896049 0  -4.002951354358842 17.99984665736465 0  -3.002918869187418 18.00004699974428 0  -2.001899197148454 18.00002025864226 0  -1.000928857829542 18.0000026810961 0  1.770181508264832e-05 17.99999412550732 0  1.000964807642195 17.99999438217773 0  2.001936752601474 18.00000318696057 0  3.002958974771399 18.00002017257278 0  4.002993423960365 17.99982469386739 0  5.002961093896771 17.99962979419238 0  6.002157521035255 17.99973057749348 0  7.001409074846463 17.99982433650333 0  8.000695928756782 17.99991335834325 0  9 18 0  -9 20 0  -8.000743565681828 19.99995249889998 0  -7.001506850408933 19.9999044309276 0  -6.002310324555968 19.99985529870428 0  -5.003175964102453 19.99980474560124 0  -4.003213918509049 19.99984619497605 0  -3.003176244873524 19.99988737744921 0  -2.002066629175224 19.99987547310015 0  -1.00101304375109 19.9998662682524 0  1.315091244523962e-05 19.99985988076793 0  1.001039571478441 19.9998562043388 0  2.002093818130368 19.99985491626413 0  3.003204484560049 19.99985545912917 0  4.003242825009628 19.99982051184955 0  5.003205310795461 19.9997859822483 0  6.002332094191177 19.99984184495479 0  7.001521243115865 19.99989575639278 0  8.000750724573663 19.99994824975945 0  8.999999999993738 20.0000000000031 0  -9 22 0  -8.00072242294944 21.99999037252876 0  -7.001464273550634 21.99998151915745 0  -6.002245582321274 21.99997428973856 0  -5.003087583776115 21.9999696869578 0  -4.003124611110459 21.99984420808688 0  -3.003087686242834 21.99971847271356 0  -2.002010461659558 21.99971991024717 0  -1.000987913259878 21.99971860882625 0  7.694685421091672e-06 21.99971481464419 0  1.001003273504741 21.99970849388599 0  2.002025720631459 21.99969933817646 0  3.003102730560832 21.99968675968242 0  4.003139355124902 21.99981882494268 0  5.003102199655011 21.99995117043005 0  6.002256747856619 21.99996091505452 0  7.001471806530651 21.99997284534974 0  8.000726214345228 21.99998610824188 0  9 22 0  -9 24 0  -8.00062344160307 24.00002514935251 0  -7.001263592602208 24.00005211075559 0  -6.001937617972929 24.00008277222858 0  -5.002663579118918 24.00011917541373 0  -4.002695357724051 23.99984102033468 0  -3.00266376226177 23.99956266891092 0  -2.001736093184974 23.99957528168208 0  -1.000855253748649 23.99958090009719 0  2.366517129746258e-06 23.99957983421709 0  1.000859759323444 23.99957210101488 0  2.00173990339388 23.99955742575235 0  3.002666370483517 23.99953524019474 0  4.002696896672293 23.99981916453005 0  5.002664593381786 24.00010329694137 0  6.001938921733063 24.00007123912023 0  7.001264713126655 24.0000446012973 0  8.000624074913139 24.00002144849213 0  9 24 0  -9 26 0  -8.000457475549069 26.00005268016465 0  -7.000927129222402 26.00010790313805 0  -6.001421447612025 26.00016828692715 0  -5.001953511501618 26.00023660147391 0  -4.001976811727684 25.99983697882904 0  -3.001953983819557 25.99943722570847 0  -2.001274890327494 25.99945858483099 0  -1.000629936977452 25.9994698822878 0  -2.031325729170825e-06 25.99947147613379 0  1.00062550239438 25.99946342800467 0  2.001269326542812 25.99944550370791 0  3.001946494399029 25.99941717270947 0  4.001967705246982 25.99982105212678 0  5.001943597674193 26.00022506859623 0  6.001414808623209 26.00015988333145 0  7.000923074744132 26.00010241826208 0  8.000455557565225 26.00004997300607 0  9 26 0  -9 28 0  -8.000242630414267 28.00007004245126 0  -7.000491701629752 28.00014305364284 0  -6.000753817220508 28.0002220770531 0  -5.001035875447828 28.00031030637925 0  -4.001048550451761 27.9998324797275 0  -3.00103677808107 27.99935460284453 0  -2.000677600047758 27.99938208665697 0  -1.000336643881514 27.99939763048105 0  -4.92044851009674e-06 27.99940163609097 0  1.000326341554292 27.99939420835288 0  2.000665899459256 27.99937515549448 0  3.001022700545471 27.99934398902713 0  4.001032527990601 27.99982407448271 0  5.001018880975815 28.00030424344531 0  6.000742026219199 28.00021765050875 0  7.000484287928437 28.00014016014577 0  8.000239055715
[...]
<PointData  Vectors="f_44-2"> 
<DataArray  type="Float64"  Name="f_44-2"  NumberOfComponents="3" format="ascii">0.0000000000000000e+00 0.0000000000000000e+00 0.0000000000000000e+00  0.0000000000000000e+00 0.0000000000000000e+00 0.0000000000000000e+00  0.0000000000000000e+00 0.0000000000000000e+00 0.0000000000000000e+00  0.0000000000000000e+00 0.0000000000000000e+00 0.0000000000000000e+00  0.0000000000000000e+00 0.0000000000000000e+00 0.0000000000000000e+00  0.0000000000000000e+00 0.0000000000000000e+00 0.0000000000000000e+00  0.0000000000000000e+00 0.0000000000000000e+00 0.0000000000000000e+00  0.0000000000000000e+00 0.0000000000000000e+00 0.0000000000000000e+00  0.0000000000000000e+00 0.0000000000000000e+00 0.0000000000000000e+00  0.0000000000000000e+00 0.0000000000000000e+00 0.0000000000000000e+00  0.0000000000000000e+00 0.0000000000000000e+00 0.0000000000000000e+00  0.0000000000000000e+00 0.0000000000000000e+00 0.0000000000000000e+00  0.0000000000000000e+00 0.0000000000000000e+00 0.0000000000000000e+00  0.0000000000000000e+00 0.0000000000000000e+00 0.0000000000000000e+00  0.0000000000000000e+00 0.0000000000000000e+00 0.0000000000000000e+00  0.0000000000000000e+00 0.0000000000000000e+00 0.0000000000000000e+00  0.0000000000000000e+00 0.0000000000000000e+00 0.0000000000000000e+00  0.0000000000000000e+00 0.0000000000000000e+00 0.0000000000000000e+00  0.0000000000000000e+00 0.0000000000000000e+00 0.0000000000000000e+00  0.0000000000000000e+00 0.0000000000000000e+00 0.0000000000000000e+00  -3.9368290007180637e-05 -6.6052504132731868e-05 0.0000000000000000e+00  -8.1839123182579358e-05 -1.2294494331943487e-04 0.0000000000000000e+00  -1.3633157097184221e-04 -1.6311267692374474e-04 0.0000000000000000e+00  -2.2458697956451003e-04 -1.8282258247958997e-04 0.0000000000000000e+00  -1.2199420789083530e-04 -1.3915507442229763e-04 0.0000000000000000e+00  -1.9178345637716963e-05 -9.2441195521106214e-05 0.0000000000000000e+00  2.7303449280651408e-05 -4.6255093257712964e-05 0.0000000000000000e+00  2.7504230691808449e-05 -9.5113183108326237e-06 0.0000000000000000e+00  -1.3563951785129182e-06 6.8581947025629731e-06 0.0000000000000000e+00  -3.2459463459971879e-05 -3.9938134874705532e-06 0.0000000000000000e+00  -3.9747249592102558e-05 -3.9174693892899067e-05 0.0000000000000000e+00  -6.1052970921432805e-06 -8.1528587047369845e-05 0.0000000000000000e+00  7.2990633792120041e-05 -1.2486259942330889e-04 0.0000000000000000e+00  1.8943409847005228e-04 -1.3712887010988926e-04 0.0000000000000000e+00  1.1285558239531951e-04 -1.3661138542601115e-04 0.0000000000000000e+00  6.7293992450117362e-05 -1.0745429926640979e-04 0.0000000000000000e+00  3.2399417818763385e-05 -5.8733565092061152e-05 0.0000000000000000e+00  0.0000000000000000e+00 0.0000000000000000e+00 0.0000000000000000e+00  0.0000000000000000e+00 0.0000000000000000e+00 0.0000000000000000e+00  -6.6325636651318727e-05 -1.6874191578950809e-04 0.0000000000000000e+00  -1.1559199324174281e-04 -3.1278622118830146e-04 0.0000000000000000e+00  -1.3761106910979067e-04 -4.0805532577616337e-04 0.0000000000000000e+00  -1.3400356419445824e-04 -4.3186987826572104e-04 0.0000000000000000e+00  2.1163896202901503e-05 -4.0789600620228449e-04 0.0000000000000000e+00  1.2129735831599112e-04 -2.6779133710103965e-04 0.0000000000000000e+00  1.3896253305601097e-04 -8.5602657980852025e-05 0.0000000000000000e+00  8.5095035540388013e-05 6.1755982090540843e-05 0.0000000000000000e+00  -7.2978005104453904e-06 1.2156423078360034e-04 0.0000000000000000e+00  -1.0144941193323523e-04 7.5989341266063118e-05 0.0000000000000000e+00  -1.6149686726724122e-04 -4.7417195738498642e-05 0.0000000000000000e+00  -1.5146690583891205e-04 -2.1370691479736018e-04 0.0000000000000000e+00  -5.9861920099283129e-05 -3.7956341286234373e-04 0.0000000000000000e+00  8.8916697174555188e-05 -4.2954412025776671e-04 0.0000000000000000e+00  1.0164311952983594e-04 -3.8777910873301591e-04 0.0000000000000000e+00  9.1919272377743812e-05 -2.9315977515886031e-04 0.0000000000000000e+00  5.4816978143201979e-05 -1.5751489024409828e-04 0.0000000000000000e+00  0.0000000000000000e+00 0.0000000000000000e+00 0.0000000000000000e+00  0.0000000000000000e+00 0.0000000000000000e+00 0.0000000000000000e+00  -1.6151572070351915e-04 -3.7020509877516537e-04 0.0000000000000000e+00  -2.5833353053102148e-04 -6.9771285507210944e-04 0.0000000000000000e+00  -2.4139677418154293e-04 -9.3880124192345692e-04 0.0000000000000000e+00  -9.6862665474816930e-05 -1.0519751029246943e-03 0.0000000000000000e+00  2.1606730204754235e-04 -8.3991172323116304e-04 0.0000000000000000e+00  3.5264910203219472e-04 -3.9983747731630194e-04 0.0000000000000000e+00  2.8295202228327207e-04 6.1071595816429260e-05 0.0000000000000000e+00  1.2674478437059458e-04 3.1641177706657054e-04 0.0000000000000000e+00  -3.0578574303211389e-05 3.6725326008382687e-04 0.0000000000000000e+00  -1.7298207384177703e-04 2.8588673433519064e-04 0.0000000000000000e+00  -2.8446939637096250e-04 5.9573960722988929e-05 0.0000000000000000e+00  -3.3307531793732258e-04 -3.2384154539813980e-04 0.0000000000000000e+00  -2.6776667448024890e-04 -7.2066519921899709e-04 0.0000000000000000e+00  -4.4013722804256511e-06 -9.1581932806881745e-04 0.0000000000000000e+00  1.8023124393831585e-04 -8.5034999824901451e-04 0.0000000000000000e+00  2.2605381950371517e-04 -6.4295142581667739e-04 0.0000000000000000e+00  1.4808682752119769e-04 -3.4376111119292470e-04 0.0000000000000000e+00  0.0000000000000000e+00 0.0000000000000000e+00 0.0000000000000000e+00  0.0000000000000000e+00 0.0000000000000000e+00 0.0000000000000000e+00  -5.1507078531133968e-04 -7.4238025195121288e-04 0.0000000000000000e+00  -8.5606343631882450e-04 -1.4282337249647533e-03 0.0000000000000000e+00  -8.5555203806300531e-04 -1.9811231490840285e-03 0.0000000000000000e+00  -3.7197754130632567e-04 -2.2757831006586420e-03 0.0000000000000000e+00  2.4850725824739414e-04 -1.2974990960406645e-03 0.0000000000000000e+00  1.1918258469898587e-04 -1.4862017954517411e-04 0.0000000000000000e+00  -1.2913446462107589e-04 4.0756664932047677e-04 0.0000000000000000e+00  -1.6082467441272451e-04 4.6542108813240132e-04 0.0000000000000000e+00  -3.0666320058718400e-05 4.8176495636838984e-04 0.0000000000000000e+00  6.4172748592992263e-05 5.3972507875932416e-04 0.0000000000000000e+00  1.3010128847820594e-05 3.1047101410772897e-04 0.0000000000000000e+00  -2.6847571052002352e-04 -7.6833740220215433e-05 0.0000000000000000e+00  -3.7424647020741300e-04 -1.0515978328317572e-03 0.0000000000000000e+00  2.2663305484272846e-04 -2.1542591685231359e-03 0.0000000000000000e+00  8.1399903452108568e-04 -1.8805243407299106e-03 0.0000000000000000e+00  8.5527892784074738e-04 -1.3598237080458180e-03 0.0000000000000000e+00  5.2177847698901478e-04 -7.0822568338251273e-04 0.0000000000000000e+00  0.0000000000000000e+00 0.0000000000000000e+00 0.0000000000000000e+00  0.0000000000000000e+00 0.0000000000000000e+00 0.0000000000000000e+00  -1.5645439050636619e-03 -1.3403453870235651e-03 0.0000000000000000e+00  -2.8207567166621630e-03 -2.6901195126169870e-03 0.0000000000000000e+00  -3.4015604845454412e-03 -4.0555524351863527e-03 0.0000000000000000e+00  -2.7971818793186506e-03 -5.4353120343310938e-03 0.0000000000000000e+00  -1.8005485977292705e-03 -2.2466182828909968e-03 0.0000000000000000e+00  -1.9904863821889650e-03 4.9097768494784711e-04 0.0000000000000000e+00  -1.6106880180155332e-03 1.6559093076634205e-07 0.0000000000000000e+00  -7.4783602348446165e-04 -1.5728873221652589e-04 0.0000000000000000e+00  -1.1858385844890482e-04 -1.9581861916560193e-04 0.0000000000000000e+00  5.0440270767721028e-04 -1.9129077854282943e-04 0.0000000000000000e+00  1.3389582894565097e-03 -2.0281075543184812e-04 0.0000000000000000e+00  2.0618539392424982e-03 7.9239748928926321e-04 0.0000000000000000e+00  1.9492106218891201e-03 -1.7739689599646973e-03 0.0000000000000000e+00  3.0749998603000496e-03 -5.1699219547698986e-03 0.0000000000000000e+00  3.6312773614788339e-03 -3.8979210509797932e-03 0.0000000000000000e+00  2.9831001788687811e-03 -2.5999287050696403e-03 0.0000000000000000e+00  1.6482406983068991e-03 -1.2989756539471360e-03 0.0000000000000000e+00  0.0000000000000000e+00 0.0000000000000000e+00 0.0000000000000000e+00  0.0000000000000000e+00 0.0000000000000000e+00 0.0000000000000000e+00  -3.8455046615275342e-03 -1.8999141257059057e-03 0.0000000000000000e+00  -7.4840870213776084e-03 -3.8882188766701450e-03 0.0000000000000000e+00  -1.0681690668489131e-02 -6.0705962358555471e-03 0.0000000000000000e+00  -1.3147814956533749e-02 -8.5944501957735380e-03 0.0000000000000000e+00  -1.2624823596028617e-02 -2.7279707370191498e-03 0.0000000000000000e+00  -1.3107229164754007e-02 3.0809484177795770e-03 0.0000000000000000e+00  -9.0543422950134130e-03 2.3744802698758990e-03 0.0000000000000000e+00  -4.5092951994828078e-03 1.9878668024719093e-03 0.0000000000000000e+00  2.2504419547881731e-04 1.9063672206989847e-03 0.0000000000000000e+00  5.0093753753482646e-03 2.1419342340254725e-03 0.0000000000000000e+00  9.7252967362019913e-03 2.7636213779714328e-03 0.0000000000000000e+00  1.4146450303210201e-02 3.9442361804069761e-03 0.0000000000000000e+00  1.3638717119803762e-02 -2.2723334467157955e-03 0.0000000000000000e+00  1.3971351698465726e-02 -8.5409554034685201e-03 0.0000000000000000e+00  1.1262272321106194e-02 -6.0178102534004891e-03 0.0000000000000000e+00  7.8556031657251515e-03 -3.8509730843773976e-03 0.0000000000000000e+00  4.0269793046975337e-03 -1.8812572353336869e-03 0.0000000000000000e+00  0.0000000000000000e+00 0.0000000000000000e+00 0.0000000000000000e+00  0.0000000000000000e+00 0.0000000000000000e+00 0.0000000000000000e+00  -6.9503483462801437e-03 -2.1051457538307900e-03 0.0000000000000000e+00  -1.3905236589764499e-02 -4.3086867717167642e-03 0.0000000000000000e+00  -2.0877308136704346e-02 -6.7177741069910837e-03 0.0000000000000000e+00  -2.7900951489806196e-02 -9.4567809234780351e-03 0.0000000000000000e+00  -2.7962795366054186e-02 -2.5323329625903338e-03 0.0000000000000000e+00  -2.8026327769184119e-02 4.4781921031434779e-03 0.0000000000000000e+00  -1.8473796530116080e-02 3.4707900349803030e-03 0.0000000000000000e+00  -9.0310999248426269e-03 2.9138190871295338e-03 0.0000000000000000e+00  3.6948995517282704e-04 2.7414318607697336e-03 0.0000000000000000e+00  9.7934432672966074e-03 2.9320763970611444e-03 0.0000000000000000e+00  1.9301135482564902e-02 3.4963497288799470e-03 0.0000000000000000e+00  2.8937092048062926e-02 4.4648642544488576e-03 0.0000000000000000e+00  2.8997870540061633e-02 -2.4946309174247957e-03 0.0000000000000000e+00  2.9047215621334440e-02 -9.4120363109069672e-03 0.0000000000000000e+00  2.1674633420983139e-02 -6.7095284396046818e-03 0.0000000000000000e+00  1.4410670250485046e-02 -4.3117763555214177e-03 0.0000000000000000e+00  7.1958656923453764e-03 -2.1087441730580328e-03 0.0000000000000000e+00  0.0000000000000000e+00 0.0000000000000000e+00 0.0000000000000000e+00  0.0000000000000000e+00 0.0000000000000000e+00 0.0000000000000000e+00  -1.0031821171684514e-02 -1.9162766907167162e-03 0.0000000000000000e+00  -2.0249071180946095e-02 -3.9058719120331994e-03 0.0000000000000000e+00  -3.0852827059031140e-02 -6.0436245168824093e-03 0.0000000000000000e+00  -4.2076945614986976e-02 -8.4060661134552732e-03 0.0000000000000000e+00  -4.2469606275989363e-02 -2.4215833507792578e-03 0.0000000000000000e+00  -4.2109066134308745e-02 3.5323274773313464e-03 0.0000000000000000e+00  -2.7467325040637307e-02 2.7695342834871384e-03 0.0000000000000000e+00  -1.3390396292425100e-02 2.3047840289261703e-03 0.0000000000000000e+00  4.2063032387453246e-04 2.1273874394215943e-03 0.0000000000000000e+00  1.4248685832380502e-02 2.2306733347098027e-03 0.0000000000000000e+00  2.8376940344619916e-02 2.6150691556471799e-03 0.0000000000000000e+00  4.3106480053703787e-02 3.2866967881957716e-03 0.0000000000000000e+00  4.3517484851406656e-02 -2.6572245424378222e-03 0.0000000000000000e+00  4.3153680033704775e-02 -8.6058935415746097e-03 0.0000000000000000e+00  3.1637287491614020e-02 -6.1802164231000208e-03 0.0000000000000000e+00  2.0759884276977360e-02 -3.9922971684157845e-03 0.0000000000000000e+00  1.0283484464947789e-02 -1.9583417894001617e-03 0.0000000000000000e+00  0.0000000000000000e+00 0.0000000000000000e+00 0.0000000000000000e+00  0.0000000000000000e+00 0.0000000000000000e+00 0.0000000000000000e+00  -1.2366550238170990e-02 -1.4339936978846888e-03 0.0000000000000000e+00  -2.5037013725730473e-02 -2.9100793732563684e-03 0.0000000000000000e+00  -3.8331035917267262e-02 -4.4698324893296454e-03 0.0000000000000000e+00  -5.2599691151280679e-02 -6.1535634497876515e-03 0.0000000000000000e+00  -5.3204753106730486e-02 -2.3806650689838747e-03 0.0000000000000000e+00  -5.2630418393624284e-02 1.3872711360622466e-03 0.0000000000000000e+00  -3.4218986490872794e-02 8.7966554946191234e-04 0.0000000000000000e+00  -1.6694174637529008e-02 5.4989623001482351e-04 0.0000000000000000e+00  4.0326876331818294e-04 3.9412874367554773e-04 0.0000000000000000e+00  1.7510324158422987e-02 4.0826534078964352e-04 0.0000000000000000e+00  3.5063417885558841e-02 5.8814817712087334e-04 0.0000000000000000e+00  5.3519671346769881e-02 9.2872600011168860e-04 0.0000000000000000e+00  5.4130485577817126e-02 -2.7795682805389515e-03 0.0000000000000000e+00  5.3544876071676767e-02 -6.4775673823898663e-03 0.0000000000000000e+00  3.9026588858288663e-02 -4.6985811060023773e-03 0.0000000000000000e+00  2.5494153568205911e-02 -3.0561689600537103e-03 0.0000000000000000e+00  1.2593209103693239e-02 -1.5051962159580729e-03 0.0000000000000000e+00  0.0000000000000000e+00 0.0000000000000000e+00 0.0000000000000000e+00  0.0000000000000000e+00 0.0000000000000000e+00 0.0000000000000000e+00  -1.3480504679046355e-02 -7.8342373224127586e-04 0.0000000000000000e+00  -2.7320597938805657e-02 -1.5794770279307720e-03 0.0000000000000000e+00  -4.1893763098095761e-02 -2.3997403340416928e-03 0.0000000000000000e+00  -5.7601346361835920e-02 -3.2537130456841874e-03 0.0000000000000000e+00  -5.8299992157383219e-02 -2.3636689001015308e-03 0.0000000000000000e+00  -5.7616704062336432e-02 -1.4790040158554612e-03 0.0000000000000000e+00  -3.7443711309875269e-02 -1.7189875955367778e-03 0.0000000000000000e+00  -1.8297559217275321e-02 -1.8983545441234432e-03 0.0000000000000000e+00  3.4701148510150670e-04 -2.0161271252767108e-03 0.0000000000000000e+00  1.8996059382166915e-02 -2.0745948819229075e-03 0.0000000000000000e+00  3.8155345152770755e-02 -2.0792062941064637e-03 0.0000000000000000e+00  5.8349382390512732e-02 -2.0388916123692817e-03 0.0000000000000000e+00  5.9046275807446653e-02 -2.8383793520866674e-03 0.0000000000000000e+00  5.8356097020162236e-02 -3.6305256950038660e-03 0.0000000000000000e+00  4.2454516000047945e-02 -2.6702758403903733e-03 0.0000000000000000e+00  2.7691832294081876e-02 -1.7541022434050223e-03 0.0000000000000000e+00  1.3665327555476272e-02 -8.6902258788918211e-04 0.0000000000000000e+00  2.1819493910007600e-11 4.2178988571852274e-10 0.0000000000000000e+00  0.0000000000000000e+00 0.0000000000000000e+00 0.0000000000000000e+00  -1.3151363841664938e-02 -8.2429435261997241e-05 0.0000000000000000e+00  -2.6661813017315565e-02 -1.5205105750156400e-04 0.0000000000000000e+00  -4.0901951327620104e-02 -1.9478230189819590e-04 0.0000000000000000e+00  -5.6265473770782989e-02 -1.9395998713993336e-04 0.0000000000000000e+00  -5.6954932610185222e-02 -2.3780477570238359e-03 0.0000000000000000e+00  -5.6273873752376205e-02 -4.5679638163829668e-03 0.0000000000000000e+00  -3.6580778521085093e-02 -4.5592290583694002e-03 0.0000000000000000e+00  -1.7904034726394544e-02 -4.5920335627710838e-03 0.0000000000000000e+00  2.7277063301935859e-04 -4.6626576530023160e-03 0.0000000000000000e+00  1.8449983045144377e-02 -4.7720086341938462e-03 0.0000000000000000e+00  3.7127734028874544e-02 -4.9255489304206460e-03 0.0000000000000000e+00  5.6821807710885464e-02 -5.1334015820135859e-03 0.0000000000000000e+00  5.7498834566872860e-02 -2.8535103270456840e-03 0.0000000000000000e+00  5.6806605089099751e-02 -5.6908813718893354e-04 0.0000000000000000e+00  4.1309572859736902e-02 -4.6570675991010563e-04 0.0000000000000000e+00  2.6934306881707958e-02 -3.2774744741402085e-04 0.0000000000000000e+00  1.3287806416065440e-02 -1.6880571358685997e-04 0.0000000000000000e+00  0.0000000000000000e+00 0.0000000000000000e+00 0.0000000000000000e+00  0.0000000000000000e+00 0.0000000000000000e+00 0.0000000000000000e+00  -1.1381011105111249e-02 5.6734006632476572e-04 0.0000000000000000e+00  -2.3073964738219408e-02 1.1678126067970443e-03 0.0000000000000000e+00  -3.5399460928842219e-02 1.8359283842730113e-03 0.0000000000000000e+00  -4.8695608483176153e-02 2.6090764013426897e-03 0.0000000000000000e+00  -4.9292744355297929e-02 -2.4213875071735160e-03 0.0000000000000000e+00  -4.8703296291290846e-02 -7.4569871771667249e-03 0.0000000000000000e+00  -3.1671570813318839e-02 -7.2340527508933904e-03 0.0000000000000000e+00  -1.5519596100877383e-02 -7.1351364769192760e-03 0.0000000000000000e+00  1.9733233350602457e-04 -7.1549947778324135e-03 0.0000000000000000e+00  1.5911494158537893e-02 -7.2934372919087904e-03 0.0000000000000000e+00  3.2054995523686985e-02 -7.5555285764948819e-03 0.0000000000000000e+00  4.9071928568209348e-02 -7.9516993829915218e-03 0.0000000000000000e+00  4.9642948934049080e-02 -2.8350478228932495e-03 0.0000000000000000e+00  4.9034749225816542e-02 2.2845178089449386e-03 0.0000000000000000e+00  3.5660997877988848e-02 1.6004607213312787e-03 0.0000000000000000e+00  2.3251804758776359e-02 1.0146048582724207e-03 0.0000000000000000e+00  1.1471005348755146e-02 4.9186905294405705e-04 0.0000000000000000e+00  0.0000000000000000e+00 0.0000000000000000e+00 0.0000000000000000e+00  0.0000000000000000e+00 0.0000000000000000e+00 0.0000000000000000e+00  -8.3585654368056907e-03 1.0846811319664064e-03 0.0000000000000000e+00  -1.6945441103404391e-02 2.2171116545963883e-03 0.0000000000000000e+00  -2.5995287338610142e-02 3.4465029557843099e-03 0.0000000000000000e+00  -3.5754760397159038e-02 4.8252325911953180e-03 0.0000000000000000e+00  -3.6195217858729138e-02 -2.4893547134929839e-03 0.0000000000000000e+00  -3.5766315796545045e-02 -9.8078741242583999e-03 0.0000000000000000e+00  -2.3261825229629930e-02 -9.4136252580999547e-03 0.0000000000000000e+00  -1.1403322514596722e-02 -9.2048655694184252e-03 0.0000000000000000e+00  1.3374059294561554e-04 -9.1747464741431216e-03 0.0000000000000000e+00  1.1665631904070722e-02 -9.3220746360710652e-03 0.0000000000000000e+00  2.3508813241573841e-02 -9.6510804206226958e-03 0.0000000000000000e+00  3.5986669275351171e-02 -1.0172508349528804e-02 0.0000000000000000e+00  3.6386671787162359e-02 -2.7931233820564345e-03 0.0000000000000000e+00  3.5929062250113136e-02 4.5877906400196445e-03 0.0000000000000000e+00  2.6137559930047179e-02 3.2738524665821456e-03 0.0000000000000000e+00  1.7045642940159186e-02 2.1045372752718722e-03 0.0000000000000000e+00  8.4102292828348319e-03 1.0291500666682035e-03 0.0000000000000000e+00  0.0000000000000000e+00 0.0000000000000000e+00 0.0000000000000000e+00  0.0000000000000000e+00 0.0000000000000000e+00 0.0000000000000000e+00  -4.4164479833084429e-03 1.4111406152161313e-03 0.0000000000000000e+00  -8.9533109957756346e-03 2.8786338442198761e-03 0.0000000000000000e+00  -1.3734556252712117e-02 4.4603553618721382e-03 0.0000000000000000e+00  -1.8890069269180493e-02 6.2172726111948181e-03 0.0000000000000000e+00  -1.9129598850774625e-02 -2.5746374861478146e-03 0.0000000000000000e+00  -1.8907705348866970e-02 -1.1368628634743600e-02 0.0000000000000000e+00  -1.2286163117026383e-02 -1.0853166015022253e-02 0.0000000000000000e+00  -6.0102254899365003e-03 -1.0562069861815586e-02 0.0000000000000000e+00  9.1507002275116988e-05 -1.0486576943565024e-02 0.0000000000000000e+00  6.1865695248141898e-03 -1.0624633146672207e-02 0.0000000000000000e+00  1.2442284572068854e-02 -1.0980075106722727e-02 0.0000000000000000e+00  1.9030016003546313e-02 -1.1562736230157146e-02 0.0000000000000000e+00  1.9216666769687953e-02 -2.7358211521788028e-03 0.0000000000000000e+00  