<?xml version="1.0"?>
<VTKFile type="UnstructuredGrid"  version="0.1"  >
<UnstructuredGrid>
<Piece  NumberOfPoints="589" NumberOfCells="1080">
<Points>
<DataArray  type="Float64"  NumberOfComponents="3"  format="ascii">-9 0 0  -8 0 0  -7 0 0  -6 0 0  -5 0 0  -4 0 0  -3 0 0  -2 0 0  -1 0 0  0 0 0  1 0 0  2 0 0  3 0 0  4 0 0  5 0 0  6 0 0  7 0 0  8 0 0  9 0 0  -9 2 0  -8.000004899902851 1.999992137052049 0  -7.00001032030866 1.999985273151136 0  -6.000017484767025 1.999980223527261 0  -5.000029188626722 1.999977356734586 0  -4.000016881162552 1.999982943588497 0  -3.000004205189063 1.999988417010722 0  -1.999998078809224 1.999993624508637 0  -0.9999971861981483 1.999997729207625 0  4.596460227822162e-07 1.999999475741099 0  0.9999979506688875 1.999998077158458 0  1.999998319654689 1.999993811349655 0  3.000003637490416 1.999988541110087 0  4.000014630315408 1.999982742091648 0  5.000030711940887 1.999979850425895 0  6.000018811038651 1.999980968291057 0  7.000011292255414 1.999985429425247 0  8.000005414768099 1.999992142118401 0  9 2 0  -9.000000000004983 4 0  -8.000007717726776 3.999980278276363 0  -7.00001366444183 3.999963289458789 0  -6.00001681189091 3.999951715875135 0  -5.000017398632 3.999948124740865 0  -3.999999165806357 3.999950565100497 0  -2.999986943086397 3.999966194216875 0  -1.999983837734645 3.999986647777367 0  -0.99998864906743 4.000003089381732 0  2.242677395960725e-06 4.000009571201439 0  0.9999929984735565 4.000003950593726 0  1.999987753813904 3.999989210350044 0  2.999990670894336 3.999969221447579 0  4.000003041173287 3.999948838721672 0  5.00002180084461 3.999941063875725 0  6.000020093474193 3.999948563808238 0  7.000016019182176 3.999961853081758 0  8.000008978458164 3.999979703960774 0  9 4 0  -9 6 0  -8.000017619149022 5.999957489701063 0  -7.000028205617499 5.999919646530015 0  -6.000026381816978 5.999891280086787 0  -5.000010579652097 5.99987703134009 0  -3.999974622759348 5.999900090594581 0  -2.999958216074432 5.999948833199349 0  -1.999964525590398 6.00000006574172 0  -0.9999805793273749 6.000028661875644 0  3.006441675470997e-06 6.000034270659113 0  0.9999881150174124 6.000024549901164 0  1.999976741547349 5.999997912616851 0  2.999972612466904 5.999952941671729 0  3.99998158401801 5.999906057919087 0  5.00001324815464 5.999882127730134 0  6.000030843595909 5.999893003654878 0  7.000032611273448 5.999920032293208 0  8.000020292248681 5.999957487055824 0  9 6 0  -9 8 0  -8.000055645839973 7.999916041076757 0  -7.000092384608254 7.9998381058906 0  -6.000091863130691 7.999774382706786 0  -5.000038279701947 7.999738375449538 0  -3.999968770499617 7.999845895475119 0  -2.99998068918635 7.999972574773214 0  -2.000006066210168 8.000034847208736 0  -1.000008043954869 8.000042615570271 0  7.424266427274688e-06 8.000044983376538 0  1.000018745195833 8.000051264659188 0  2.000013473325581 8.000024101716974 0  2.999982405661798 7.999977951988728 0  3.999971895950319 7.999864770397714 0  5.000041998915771 7.999737209425359 0  6.000104898014006 7.999772845955626 0  7.000105542195869 7.999836517299098 0  8.000063491984728 7.999915045274093 0  9 8 0  -9 10 0  -8.000169258190651 9.999850531962474 0  -7.000305559198241 9.999699770668006 0  -6.000369547420408 9.999546709926571 0  -5.000306361466796 9.999391017852776 0  -4.000196523451138 9.999737280346547 0  -3.000212848446232 10.00003555706167 0  -2.000167627596891 9.999986333854181 0  -1.000071157555337 9.999970551325333 0  5.392362190039394e-07 9.999966686621864 0  1.000072077899869 9.999966759951995 0  2.000167884042709 9.999964019447649 0  3.000251426869641 10.00007357982729 0  4.000240295386757 9.999778871297368 0  5.000369652221399 9.99939049985529 0  6.000427874967322 9.999540624659504 0  7.00034918888201 9.99969361827301 0  8.000192418042356 9.999846923549066 0  9 10 0  -9 12 0  -8.000414502493491 11.999790269044 0  -7.000807663062983 11.99957075660572 0  -6.001155305569182 11.99932977683064 0  -5.001427387544028 11.99905105821523 0  -4.00137105236212 11.99968070154306 0  -3.001419736546418 12.00030390406055 0  -2.000957628450275 12.00023158122161 0  -1.000446361890233 12.00019393952948 0  8.276003052965471e-05 12.00018940184199 0  1.000615470584751 12.00021952812373 0  2.001139243666535 12.00029232270081 0  3.001629099547338 12.00042755594642 0  4.001572639429445 11.99971893262158 0  5.001611787996272 11.99900432577317 0  6.001298003320509 11.99929710430897 0  7.00090493151284 11.99954958084789 0  8.000463783613903 11.99977978432081 0  9 12 0  -9 14 0  -8.000744709945813 13.99976921435613 0  -7.001491190834455 13.99952775439282 0  -6.002242195720258 13.9992640072951 0  -5.003003051688797 13.99896452090501 0  -4.003010561708967 13.99969780670047 0  -3.003013069764811 14.00044021644805 0  -2.001945029131965 14.00033825643798 0  -1.000893302949102 14.00028504699316 0  0.0001507656203961488 14.00027358934593 0  1.001195273980688 14.00030178530567 0  2.002247488912048 14.00037110662192 0  3.003312731678926 14.00048524878527 0  4.003320005919987 13.99969097446584 0  5.003327300805997 13.9989012866432 0  6.002484213266897 13.99921514233042 0  7.00165235173889 13.99949484611506 0  8.000825299754148 13.99975271201821 0  9 14 0  -9 16 0  -8.001067283742671 15.99979091136112 0  -7.00215571506029 15.9995740164715 0  -6.003288217944342 15.99934136954019 0  -5.004491376388446 15.99908487408709 0  -4.004534394742448 15.99970569980571 0  -3.004491672630676 16.0003229681501 0  -2.002868618618158 16.00025038459417 0  -1.001310224901503 16.00020951619681 0  0.0002170817156243441 16.00019949879734 0  1.001744994896119 16.00021987559535 0  2.003305146567591 16.00027094427101 0  3.004931114797415 16.0003535968339 0  4.004977226975382 15.9996701234263 0  5.004938188581654 15.99898590525255 0  6.003623707018582 15.99927003158714 0  7.002379431122681 15.99952763355179 0  8.001179145496382 15.99976804139775 0  9 16 0  -9 18 0  -8.001304687609851 17.99984384709114 0  -7.002642914132808 17.99968334536637 0  -6.004049941171336 17.99951421977683 0  -5.005564476242135 17.99933236564794 0  -4.005629793073802 17.99970630598202 0  -3.005565006235121 18.000079509374 0  -2.003535448331739 18.00003603371823 0  -1.001603653641318 18.00001097740175 0  0.0002809805512293773 18.00000422470819 0  1.002166625243071 18.00001558532425 0  2.004101386880904 18.00004481988573 0  3.006135652237283 18.00009154623819 0  4.006203663137956 17.99965421909934 0  5.006139890805549 17.99921786210456 0  6.004480294296505 17.99943118337527 0  7.002929234355085 17.99962929617929 0  8.001447673843018 17.99981720504583 0  9 18 0  -9 20 0  -8.001407400185554 19.999914169525 0  -7.002853844875748 19.99982718512961 0  -6.004379870297544 19.99973801859163 0  -5.006029001373735 19.99964589170384 0  -4.006103652616447 19.99970470163935 0  -3.006028316277417 19.9997627350077 0  -2.003813357105868 19.99974828895155 0  -1.001709431926385 19.99973951784017 0  0.0003408313831867938 19.99973679157073 0  1.002392763416651 19.99974008580355 0  2.004501699913515 19.99974899641777 0  3.006725040276061 19.99976270425597 0  4.006802407607911 19.99964584143299 0  5.00672690479413 19.99952960584577 0  6.004900580059701 19.9996532166797 0  7.003199705541521 19.99977179601785 0  8.00157995025574 19.99988681781414 0  8.999999999981892 19.99999999999742 0  -9 22 0  -8.001353435059944 21.99998909903702 0  -7.002745384700381 21.99997975426133 0  -6.004215583228277 21.99997366597105 0  -5.005806202993218 21.99997282603813 0  -4.005879203597149 21.99970014226564 0  -3.005805258539615 21.99942664161665 0  -2.003649311706156 21.99943794055181 0  -1.001601579281012 21.99944398491547 0  0.0003940299247480861 21.99944538378849 0  1.002391946462217 21.99944222194189 0  2.004446629509778 21.99943407004455 0  3.006614259393757 21.99941997507774 0  4.006689433532446 21.99964270217072 0  5.006613365508414 21.99986573568232 0  6.004816990265686 21.99989536946719 0  7.003144447309483 21.9999285137317 0  8.001552405133038 21.99996376548402 0  9 22 0  -9 24 0  -8.001144888865987 24.00005780704789 0  -7.002322824209965 24.00011930188924 0  -6.003567770935698 24.00018832327546 0  -5.004915588518204 24.00026901907352 0  -4.00497820652353 23.99969293967014 0  -3.004915078941738 23.9991161245579 0  -2.003054545399237 23.99914852484345 0  -1.001286213458749 23.99916695455109 0  0.0004380640377749269 23.99917214011935 0  1.002165180584064 23.99916423511131 0  2.003942069460791 23.99914282239197 0  3.005816998769966 23.999106910371 0  4.005880682677246 23.99964364487584 0  5.005813313004363 24.0001805026353 0  6.004236089885576 24.00012346254621 0  7.002766004196128 24.00007678723726 0  8.001365773881655 24.00003676745122 0  9 24 0  -9 26 0  -8.000803562420295 26.00011177791098 0  -7.001630945707509 26.00022875643474 0  -6.002506630133894 26.00035629118806 0  -5.003456321795469 26.00050005619153 0  -4.003501889980325 25.99968359105616 0  -3.003456736256565 25.99886652474201 0  -2.002093045360915 25.9989147967418 0  -1.000795567627205 25.99894270524292 0  0.0004708349358568802 25.99895106245951 0  1.001740459760405 25.99894007932936 0  2.003047649409339 25.99890936519985 0  3.004427671281031 25.99885792787958 0  4.004472875220338 25.99964752836586 0  5.004421316879311 26.00043709885476 0  6.003224690112702 26.00031008867743 0  7.002106959687734 26.00019843742632 0  8.001040761572265 26.00009676292768 0  9 26 0  -9 28 0  -8.000366241440172 28.00014496175154 0  -7.000744572101465 28.00029599960761 0  -6.0011474447759 28.00045934798796 0  -5.001587904326668 28.00064156269715 0  -4.001611885112585 27.99967289915389 0  -3.001589456509527 27.99870383725289 0  -2.000868731857722 27.99876231193803 0  -1.000181543975615 27.99879644898992 0  0.0004908063670602806 27.99880713414292 0  1.001166597750965 27.99879462978238 0  2.001864152472821 27.99875857882974 0  3.002602301161001 27.99869800369364 0  4.002624442399663 27.99965346939875 0  5.002593713061546 28.00060881896732 0  6.001895718970538 28.00043528429777 0  7.001240543282791 28.00028019153537 0  8
[...]
<PointData  Vectors="f_44-2"> 
<DataArray  type="Float64"  Name="f_44-2"  NumberOfComponents="3" format="ascii">0.0000000000000000e+00 0.0000000000000000e+00 0.0000000000000000e+00  0.0000000000000000e+00 0.0000000000000000e+00 0.0000000000000000e+00  0.0000000000000000e+00 0.0000000000000000e+00 0.0000000000000000e+00  0.0000000000000000e+00 0.0000000000000000e+00 0.0000000000000000e+00  0.0000000000000000e+00 0.0000000000000000e+00 0.0000000000000000e+00  0.0000000000000000e+00 0.0000000000000000e+00 0.0000000000000000e+00  0.0000000000000000e+00 0.0000000000000000e+00 0.0000000000000000e+00  0.0000000000000000e+00 0.0000000000000000e+00 0.0000000000000000e+00  0.0000000000000000e+00 0.0000000000000000e+00 0.0000000000000000e+00  0.0000000000000000e+00 0.0000000000000000e+00 0.0000000000000000e+00  0.0000000000000000e+00 0.0000000000000000e+00 0.0000000000000000e+00  0.0000000000000000e+00 0.0000000000000000e+00 0.0000000000000000e+00  0.0000000000000000e+00 0.0000000000000000e+00 0.0000000000000000e+00  0.0000000000000000e+00 0.0000000000000000e+00 0.0000000000000000e+00  0.0000000000000000e+00 0.0000000000000000e+00 0.0000000000000000e+00  0.0000000000000000e+00 0.0000000000000000e+00 0.0000000000000000e+00  0.0000000000000000e+00 0.0000000000000000e+00 0.0000000000000000e+00  0.0000000000000000e+00 0.0000000000000000e+00 0.0000000000000000e+00  0.0000000000000000e+00 0.0000000000000000e+00 0.0000000000000000e+00  0.0000000000000000e+00 0.0000000000000000e+00 0.0000000000000000e+00  6.0984255266519346e-05 9.3895908724569776e-05 0.0000000000000000e+00  1.2714773226941544e-04 1.7560639506990097e-04 0.0000000000000000e+00  2.1191540535701319e-04 2.3516569144993102e-04 0.0000000000000000e+00  3.4701986658146344e-04 2.6795343497384376e-04 0.0000000000000000e+00  2.0001304114694777e-04 2.0168562679876570e-04 0.0000000000000000e+00  5.0696992045965839e-05 1.3561663445866269e-04 0.0000000000000000e+00  -1.9916191172857801e-05 7.2172675105501639e-05 0.0000000000000000e+00  -2.7139628675714256e-05 2.1767283879784524e-05 0.0000000000000000e+00  5.4684189805474669e-06 -8.4692461618277598e-07 0.0000000000000000e+00  4.1480348205129975e-05 1.3352403831502145e-05 0.0000000000000000e+00  4.5687143767079450e-05 6.0384940633151295e-05 0.0000000000000000e+00  -5.0787143162267397e-06 1.1718645359976250e-04 0.0000000000000000e+00  -1.1690797267828527e-04 1.7542246436886582e-04 0.0000000000000000e+00  -2.7919473346246538e-04 1.9163963290180888e-04 0.0000000000000000e+00  -1.6580114083033812e-04 1.8922305866618262e-04 0.0000000000000000e+00  -9.8163014375041822e-05 1.4817890565867992e-04 0.0000000000000000e+00  -4.6956361239925914e-05 8.0815711470802023e-05 0.0000000000000000e+00  0.0000000000000000e+00 0.0000000000000000e+00 0.0000000000000000e+00  0.0000000000000000e+00 0.0000000000000000e+00 0.0000000000000000e+00  1.0124986036969428e-04 2.3652506382882047e-04 0.0000000000000000e+00  1.7987934873833712e-04 4.3981131082075213e-04 0.0000000000000000e+00  2.2248299451857410e-04 5.7741415670880430e-04 0.0000000000000000e+00  2.3136003107193136e-04 6.1864756084350440e-04 0.0000000000000000e+00  1.4643711059957314e-05 5.8462924175020560e-04 0.0000000000000000e+00  -1.2804137398457146e-04 3.9331097649105535e-04 0.0000000000000000e+00  -1.5978751895592581e-04 1.4469558225579951e-04 0.0000000000000000e+00  -9.5330097560977130e-05 -5.6051143144134061e-05 0.0000000000000000e+00  2.1233578645983398e-05 -1.3812504479352261e-04 0.0000000000000000e+00  1.4044713922198380e-04 -7.8065115346152706e-05 0.0000000000000000e+00  2.1415767180876674e-04 8.6835434517834709e-05 0.0000000000000000e+00  1.9421214250508179e-04 3.0919824025893607e-04 0.0000000000000000e+00  6.5699652932261856e-05 5.2998799826366140e-04 0.0000000000000000e+00  -1.3773840592279805e-04 5.9356121373780810e-04 0.0000000000000000e+00  -1.4857915195116270e-04 5.3295059996164278e-04 0.0000000000000000e+00  -1.3059804883465751e-04 4.0162457694035362e-04 0.0000000000000000e+00  -7.6907992386055629e-05 2.1543174992818629e-04 0.0000000000000000e+00  0.0000000000000000e+00 0.0000000000000000e+00 0.0000000000000000e+00  0.0000000000000000e+00 0.0000000000000000e+00 0.0000000000000000e+00  2.3198610634108123e-04 5.1206678478508461e-04 0.0000000000000000e+00  3.7671320034595411e-04 9.6671008079946246e-04 0.0000000000000000e+00  3.6795617830251832e-04 1.3051015569357201e-03 0.0000000000000000e+00  1.8706924810654195e-04 1.4713316241983946e-03 0.0000000000000000e+00  -2.4149939462237612e-04 1.1838441027364186e-03 0.0000000000000000e+00  -4.3183988267971035e-04 5.8769588065180696e-04 0.0000000000000000e+00  -3.4410023386870431e-04 -3.6181084722097384e-05 0.0000000000000000e+00  -1.4036464400549417e-04 -3.8141163432370062e-04 0.0000000000000000e+00  6.4014373475655716e-05 -4.5091803525591133e-04 0.0000000000000000e+00  2.4752764615209509e-04 -3.4256349528628594e-04 0.0000000000000000e+00  3.8930954828521233e-04 -4.0684728957926010e-05 0.0000000000000000e+00  4.4812272521393721e-04 4.7057949662168550e-04 0.0000000000000000e+00  3.5583876153498994e-04 9.9865261057141032e-04 0.0000000000000000e+00  -1.5565384176989343e-06 1.2546617068739027e-03 0.0000000000000000e+00  -2.4664344843509201e-04 1.1595021839584444e-03 0.0000000000000000e+00  -3.0585657346481353e-04 8.7449446205255027e-04 0.0000000000000000e+00  -1.9971370844068629e-04 4.6696277278594946e-04 0.0000000000000000e+00  0.0000000000000000e+00 0.0000000000000000e+00 0.0000000000000000e+00  0.0000000000000000e+00 0.0000000000000000e+00 0.0000000000000000e+00  7.1125047409359681e-04 1.0171119599569494e-03 0.0000000000000000e+00  1.1874058188203961e-03 1.9584008283024413e-03 0.0000000000000000e+00  1.2019005225202316e-03 2.7212208268984498e-03 0.0000000000000000e+00  5.6277782573772980e-04 3.1369512962762629e-03 0.0000000000000000e+00  -2.7763809734230308e-04 1.8125244272061451e-03 0.0000000000000000e+00  -1.0514181946179916e-04 2.5968914085903056e-04 0.0000000000000000e+00  2.2629392460974526e-04 -4.8946861949179105e-04 0.0000000000000000e+00  2.6239691344570132e-04 -5.6498265492466008e-04 0.0000000000000000e+00  7.8879441432892357e-05 -5.8585819632855766e-04 0.0000000000000000e+00  -5.8306585301052309e-05 -6.6366944434489441e-04 0.0000000000000000e+00  2.2994407143276913e-06 -3.6007527150532794e-04 0.0000000000000000e+00  3.7224812587027773e-04 1.5524937047176992e-04 0.0000000000000000e+00  5.0589484978799453e-04 1.4545826042010148e-03 0.0000000000000000e+00  -3.0355987378526117e-04 2.9253973047654669e-03 0.0000000000000000e+00  -1.0880464587040390e-03 2.5451455946484069e-03 0.0000000000000000e+00  -1.1423586324071117e-03 1.8372301958473876e-03 0.0000000000000000e+00  -6.9664844965428420e-04 9.5604477133045369e-04 0.0000000000000000e+00  0.0000000000000000e+00 0.0000000000000000e+00 0.0000000000000000e+00  0.0000000000000000e+00 0.0000000000000000e+00 0.0000000000000000e+00  2.1298789078566076e-03 1.8246321395236265e-03 0.0000000000000000e+00  3.8444730776002020e-03 3.6627023390840363e-03 0.0000000000000000e+00  4.6492716014935737e-03 5.5236048545270252e-03 0.0000000000000000e+00  3.8565272538862564e-03 7.4069880076356922e-03 0.0000000000000000e+00  2.5135371038656476e-03 3.1010869630711366e-03 0.0000000000000000e+00  2.7652088726732795e-03 -5.9196079138820799e-04 0.0000000000000000e+00  2.2394083844892521e-03 7.8237517766758060e-05 0.0000000000000000e+00  1.0641413064961273e-03 2.9389722884815776e-04 0.0000000000000000e+00  2.0692176740466327e-04 3.4683321057377771e-04 0.0000000000000000e+00  -6.4021360474747556e-04 3.3982700336265592e-04 0.0000000000000000e+00  -1.7689554424171043e-03 3.5193281739627795e-04 0.0000000000000000e+00  -2.7600428485797025e-03 -9.8031946837538156e-04 0.0000000000000000e+00  -2.6213203756008628e-03 2.4360433503958930e-03 0.0000000000000000e+00  -4.1178624374075476e-03 6.9587961871993018e-03 0.0000000000000000e+00  -4.8479323572001021e-03 5.2397352335013386e-03 0.0000000000000000e+00  -3.9775518174801749e-03 3.4920928483628388e-03 0.0000000000000000e+00  -2.1964225324753437e-03 1.7439615708475127e-03 0.0000000000000000e+00  0.0000000000000000e+00 0.0000000000000000e+00 0.0000000000000000e+00  0.0000000000000000e+00 0.0000000000000000e+00 0.0000000000000000e+00  5.2049206336770857e-03 2.5766473127511584e-03 0.0000000000000000e+00  1.0132997050745945e-02 5.2727128949435383e-03 0.0000000000000000e+00  1.4471795230225775e-02 8.2311177269456335e-03 0.0000000000000000e+00  1.7833433655234023e-02 1.1651325502042221e-02 0.0000000000000000e+00  1.7144373224094012e-02 3.7540318389651986e-03 0.0000000000000000e+00  1.7800140607068568e-02 -4.0652092651947283e-03 0.0000000000000000e+00  1.2345605857735991e-02 -3.0935156131706369e-03 0.0000000000000000e+00  6.2423460768699949e-03 -2.5560414695237049e-03 0.0000000000000000e+00  -1.1222179853546623e-04 -2.4307369934209056e-03 0.0000000000000000e+00  -6.5408231996236634e-03 -2.7322530355825933e-03 0.0000000000000000e+00  -1.2896418845901548e-02 -3.5527315252699187e-03 0.0000000000000000e+00  -1.8892264558480983e-02 -5.1243824402771448e-03 0.0000000000000000e+00  -1.8222419309863527e-02 3.1144267769109709e-03 0.0000000000000000e+00  -1.8641419756523222e-02 1.1422532946600681e-02 0.0000000000000000e+00  -1.4998650208048614e-02 8.0446986965610166e-03 0.0000000000000000e+00  -1.0450259478553969e-02 5.1464885034428172e-03 0.0000000000000000e+00  -5.3540241462771802e-03 2.5137004301888483e-03 0.0000000000000000e+00  0.0000000000000000e+00 0.0000000000000000e+00 0.0000000000000000e+00  0.0000000000000000e+00 0.0000000000000000e+00 0.0000000000000000e+00  9.3775679368522814e-03 2.8490015253628351e-03 0.0000000000000000e+00  1.8762973624007001e-02 5.8299225823861614e-03 0.0000000000000000e+00  2.8176143710609485e-02 9.0863832273901882e-03 0.0000000000000000e+00  3.7667179681012616e-02 1.2785082691640174e-02 0.0000000000000000e+00  3.7769618522666054e-02 3.4970569660064689e-03 0.0000000000000000e+00  3.7859763688577547e-02 -5.9086687788693333e-03 0.0000000000000000e+00  2.5065170485171817e-02 -4.5320450719516514e-03 0.0000000000000000e+00  1.2433683253868266e-02 -3.7605452565843333e-03 0.0000000000000000e+00  -1.3777679159811921e-04 -3.5040285585362465e-03 0.0000000000000000e+00  -1.2748237680215192e-02 -3.7321961434937691e-03 0.0000000000000000e+00  -2.5490723416193972e-02 -4.4580525781510137e-03 0.0000000000000000e+00  -3.8439390221280394e-02 -5.7214117511303186e-03 0.0000000000000000e+00  -3.8527780300394200e-02 3.4269111466159277e-03 0.0000000000000000e+00  -3.8565222792956606e-02 1.2517105481010968e-02 0.0000000000000000e+00  -2.8747777618757249e-02 8.9232856366092527e-03 0.0000000000000000e+00  -1.9100309179159378e-02 5.7344482986701646e-03 0.0000000000000000e+00  -9.5339899807987717e-03 2.8045040885949844e-03 0.0000000000000000e+00  0.0000000000000000e+00 0.0000000000000000e+00 0.0000000000000000e+00  0.0000000000000000e+00 0.0000000000000000e+00 0.0000000000000000e+00  1.3505516314240820e-02 2.5923477758913642e-03 0.0000000000000000e+00  2.7259884923588919e-02 5.2821567125260127e-03 0.0000000000000000e+00  4.1533574824505815e-02 8.1684496633336184e-03 0.0000000000000000e+00  5.6641663798958769e-02 1.1352674785123067e-02 0.0000000000000000e+00  5.7182434879014393e-02 3.3557603434849078e-03 0.0000000000000000e+00  5.6704575682007784e-02 -4.6018508842107430e-03 0.0000000000000000e+00  3.7167039968902617e-02 -3.5608995484731139e-03 0.0000000000000000e+00  1.8399981124562124e-02 -2.9138508872292206e-03 0.0000000000000000e+00  -8.2091715507308188e-06 -2.6464905709954675e-03 0.0000000000000000e+00  -1.8444147413780018e-02 -2.7491843900434246e-03 0.0000000000000000e+00  -3.7295124974526507e-02 -3.2211659344023725e-03 0.0000000000000000e+00  -5.6973714023625263e-02 -4.0685791881407011e-03 0.0000000000000000e+00  -5.7524914297411925e-02 3.6545561152076952e-03 0.0000000000000000e+00  -5.7018152698613052e-02 1.1381393996066887e-02 0.0000000000000000e+00  -4.1776144739638574e-02 8.1764993809922137e-03 0.0000000000000000e+00  -2.7400987672285226e-02 5.2830329345106286e-03 0.0000000000000000e+00  -1.3569796824473467e-02 2.5918242313126933e-03 0.0000000000000000e+00  0.0000000000000000e+00 0.0000000000000000e+00 0.0000000000000000e+00  0.0000000000000000e+00 0.0000000000000000e+00 0.0000000000000000e+00  1.6624502501330359e-02 1.9456645303992035e-03 0.0000000000000000e+00  3.3653516621776056e-02 3.9464350829898718e-03 0.0000000000000000e+00  5.1512719555686148e-02 6.0564913164625816e-03 0.0000000000000000e+00  7.0669911997428364e-02 8.3282845444094134e-03 0.0000000000000000e+00  7.1485994618577964e-02 3.3022768519673788e-03 0.0000000000000000e+00  7.0725868490229382e-02 -1.7194546061793487e-03 0.0000000000000000e+00  4.6243265268058373e-02 -1.0232813953249811e-03 0.0000000000000000e+00  2.2951589446989589e-02 -5.5772772598636125e-04 0.0000000000000000e+00  2.3288010003910919e-04 -3.1795951849816566e-04 0.0000000000000000e+00  -2.2499334360462843e-02 -2.9805387624040570e-04 0.0000000000000000e+00  -4.5831347175347016e-02 -4.9122230836576308e-04 0.0000000000000000e+00  -7.0377263651159538e-02 -8.8868703287866787e-04 0.0000000000000000e+00  -7.1187458597954265e-02 3.8188277869539338e-03 0.0000000000000000e+00  -7.0397147665541268e-02 8.5100218506111436e-03 0.0000000000000000e+00  -5.1290362324303444e-02 6.1777193640164254e-03 0.0000000000000000e+00  -3.3496339088219682e-02 4.0204067897956349e-03 0.0000000000000000e+00  -1.6543176301650083e-02 1.9808010237947656e-03 0.0000000000000000e+00  0.0000000000000000e+00 0.0000000000000000e+00 0.0000000000000000e+00  0.0000000000000000e+00 0.0000000000000000e+00 0.0000000000000000e+00  1.8112358863772462e-02 1.0787579546830226e-03 0.0000000000000000e+00  3.6700451133827992e-02 2.1731937586349473e-03 0.0000000000000000e+00  5.6258221748438926e-02 3.2974254105490024e-03 0.0000000000000000e+00  7.7316133613865606e-02 4.4625850260404405e-03 0.0000000000000000e+00  7.8249451409109577e-02 3.2738765202513375e-03 0.0000000000000000e+00  7.7349150424585816e-02 2.0908314802968002e-03 0.0000000000000000e+00  5.0606108773171961e-02 2.4301780585613240e-03 0.0000000000000000e+00  2.5232184017943360e-02 2.6947772917008603e-03 0.0000000000000000e+00  5.2855589243677107e-04 2.8831351516192829e-03 0.0000000000000000e+00  -2.4177797488008891e-02 2.9987003531938283e-03 0.0000000000000000e+00  -4.9559381961854464e-02 3.0497023917472029e-03 0.0000000000000000e+00  -7.6313624145528600e-02 3.0495997608418267e-03 0.0000000000000000e+00  -7.7229680735068418e-02 3.8903207747861290e-03 0.0000000000000000e+00  -7.6312013461892592e-02 4.7198020678311681e-03 0.0000000000000000e+00  -5.5505120937426905e-02 3.4779319679752617e-03 0.0000000000000000e+00  -3.6198206018006933e-02 2.2875860135177836e-03 0.0000000000000000e+00  -1.7861129917095382e-02 1.1341790614996085e-03 0.0000000000000000e+00  -9.5225693667283410e-10 0.0000000000000000e+00 0.0000000000000000e+00  0.0000000000000000e+00 0.0000000000000000e+00 0.0000000000000000e+00  1.7685125255232331e-02 1.4936129872223055e-04 0.0000000000000000e+00  3.5842766801387177e-02 2.8077832030617002e-04 0.0000000000000000e+00  5.4959750049250106e-02 3.7452350574549445e-04 0.0000000000000000e+00  7.5554476979524721e-02 4.0727457543646129e-04 0.0000000000000000e+00  7.6472190102327225e-02 3.2847044618202230e-03 0.0000000000000000e+00  7.5581117792906910e-02 6.1695009425382918e-03 0.0000000000000000e+00  4.9544127878317190e-02 6.1803240764189303e-03 0.0000000000000000e+00  2.4856104957494966e-02 6.2497378022154174e-03 0.0000000000000000e+00  8.3505361196700061e-04 6.3728933540046244e-03 0.0000000000000000e+00  -2.3179718978354125e-02 6.5513760010290339e-03 0.0000000000000000e+00  -4.7848498804639802e-02 6.7931064257866708e-03 0.0000000000000000e+00  -7.3852010956423825e-02 7.1124756839082920e-03 0.0000000000000000e+00  -7.4732438694155676e-02 3.9015792722182823e-03 0.0000000000000000e+00  -7.3819455748069404e-02 6.8453990076812498e-04 0.0000000000000000e+00  -5.3674168380697287e-02 5.7190773252226330e-04 0.0000000000000000e+00  -3.4992358327214999e-02 4.0736641311047599e-04 0.0000000000000000e+00  -1.7261940014523268e-02 2.1115075715437393e-04 0.0000000000000000e+00  0.0000000000000000e+00 0.0000000000000000e+00 0.0000000000000000e+00  0.0000000000000000e+00 0.0000000000000000e+00 0.0000000000000000e+00  1.5355235542755164e-02 -7.0830479110122683e-04 0.0000000000000000e+00  3.1121099003120999e-02 -1.4609927958954289e-03 0.0000000000000000e+00  4.7705999293918951e-02 -2.3043804697036149e-03 0.0000000000000000e+00  6.5570216568720113e-02 -3.2885180458317098e-03 0.0000000000000000e+00  6.6367015622750047e-02 3.3367185738276241e-03 0.0000000000000000e+00  6.5603486626397520e-02 9.9691552812815973e-03 0.0000000000000000e+00  4.3136562338011906e-02 9.6980437337538007e-03 0.0000000000000000e+00  2.1835239199193512e-02 9.5915558693341479e-03 0.0000000000000000e+00  1.1151622356429501e-03 9.6431836783674209e-03 0.0000000000000000e+00  -1.9591460408684504e-02 9.8530361034472307e-03 0.0000000000000000e+00  -4.0852079736606803e-02 1.0228209875092521e-02 0.0000000000000000e+00  -6.3249509729629061e-02 1.0782862012934382e-02 0.0000000000000000e+00  -6.3980998769657349e-02 3.8726918375201385e-03 0.0000000000000000e+00  -6.3181328511925330e-02 -3.0405648151933381e-03 0.0000000000000000e+00  -4.5944562537272374e-02 -2.1261636552012855e-03 0.0000000000000000e+00  -2.9954277763677099e-02 -1.3459061131390121e-03 0.0000000000000000e+00  -1.4776716273987824e-02 -6.5186834326267480e-04 0.0000000000000000e+00  0.0000000000000000e+00 0.0000000000000000e+00 0.0000000000000000e+00  0.0000000000000000e+00 0.0000000000000000e+00 0.0000000000000000e+00  1.1376115945494996e-02 -1.3887545853483803e-03 0.0000000000000000e+00  2.3050069181843425e-02 -2.8405527606620356e-03 0.0000000000000000e+00  3.5327591853839803e-02 -4.4203438820715722e-03 0.0000000000000000e+00  4.8530958256652289e-02 -6.1971146278792522e-03 0.0000000000000000e+00  4.9125712754477545e-02 3.4277226194242070e-03 0.0000000000000000e+00  4.8578876051502483e-02 1.3058231877638996e-02 0.0000000000000000e+00  3.2116094168820344e-02 1.2560301412319615e-02 0.0000000000000000e+00  1.6511382734793946e-02 1.2305433342695019e-02 0.0000000000000000e+00  1.3393602891121517e-03 1.2285150637158368e-02 0.0000000000000000e+00  -1.3813615711084901e-02 1.2498102946680828e-02 0.0000000000000000e+00  -2.9362045364689397e-02 1.2950293688935658e-02 0.0000000000000000e+00  -4.5727621816819372e-02 1.3655487174350674e-02 0.0000000000000000e+00  -4.6226819946634176e-02 3.8215024238080009e-03 0.0000000000000000e+00  -4.5623679385201378e-02 -6.0136247779700985e-03 0.0000000000000000e+00  -3.3184572758616644e-02 -4.2876178494071415e-03 0.0000000000000000e+00  -2.1638364190783483e-02 -2.7543779977332555e-03 0.0000000000000000e+00  -1.0675334908630409e-02 -1.3463551886388890e-03 0.0000000000000000e+00  0.0000000000000000e+00 0.0000000000000000e+00 0.0000000000000000e+00  0.0000000000000000e+00 0.0000000000000000e+00 0.0000000000000000e+00  6.1887994240333831e-03 -1.8173560408837829e-03 0.0000000000000000e+00  1.2534144439898046e-02 -3.7083626260786132e-03 0.0000000000000000e+00  1.9197639657890446e-02 -5.7485085076398115e-03 0.0000000000000000e+00  2.6347870239792150e-02 -8.0177268019641021e-03 0.0000000000000000e+00  2.6684025569252992e-02 3.5483521432017758e-03 0.0000000000000000e+00  2.6411798603550696e-02 1.5117012150996055e-02 0.0000000000000000e+00  1.7711431739221874e-02 1.4455317051899806e-02 0.0000000000000000e+00  9.4779733337891445e-03 1.4086266613152139e-02 0.0000000000000000e+00  1.4860249730633171e-03 1.3998809374384386e-02 0.0000000000000000e+00  -6.4834934728886700e-03 1.4190499461803660e-02 0.0000000000000000e+00  -1.4649285946082294e-02 1.4666377324309894e-02 0.0000000000000000e+00  -2.3235146218180305e-02 1.5439033098767905e-02 0.0000000000000000e+00  -2.3450144371346078e-02 3.7591781120598802e-03 0.0000000000000000e+00  -2.3102388863039145e-02 -7.9214273334378242e-03 0.0000000000000000e+00  -1.6807256702485240e-02 -5.678280909319783