<?xml version="1.0"?>
<VTKFile type="UnstructuredGrid"  version="0.1"  >
<UnstructuredGrid>
<Piece  NumberOfPoints="589" NumberOfCells="1080">
<Points>
<DataArray  type="Float64"  NumberOfComponents="3"  format="ascii">-9 0 0  -8 0 0  -7 0 0  -6 0 0  -5 0 0  -4 0 0  -3 0 0  -2 0 0  -1 0 0  0 0 0  1 0 0  2 0 0  3 0 0  4 0 0  5 0 0  6 0 0  7 0 0  8 0 0  9 0 0  -9 2 0  -8.000000338468771 1.999999696413247 0  -7.000000725565285 1.999999402932526 0  -6.000001236273354 1.999999124418451 0  -5.000002009248814 1.999998852139798 0  -4.000001495389905 1.99999921488479 0  -3.000000900089372 1.999999415239659 0  -2.000000511806667 1.999999540279966 0  -1.000000244110994 1.999999634001415 0  -4.938543177458675e-08 1.999999672949946 0  1.00000013849773 1.999999648716162 0  2.000000381387628 1.999999564919824 0  3.000000728338595 1.999999445810716 0  4.000001208076011 1.999999282586849 0  5.000001843661076 1.999999125436263 0  6.000001129926325 1.999999269200925 0  7.000000661268412 1.999999479325385 0  8.000000308021201 1.999999729905892 0  9 2 0  -9 4 0  -8.000000482426275 3.999999352402793 0  -7.000000956683964 3.999998745998894 0  -6.000001423476357 3.999998223895598 0  -5.000001894017606 3.999997833852283 0  -4.000001308646402 3.999997925391291 0  -3.000000811869749 3.999998263836126 0  -2.000000455194255 3.99999870212384 0  -1.000000220883934 3.999999036268284 0  -6.462816052360415e-08 3.999999172368156 0  1.000000085771939 3.999999080489637 0  2.000000304437143 3.999998805964733 0  3.000000661295366 3.999998418430398 0  4.000001162259902 3.999998017757393 0  5.000001711297765 3.999997821369915 0  6.000001279543967 3.999998272963054 0  7.000000860893394 3.999998796827059 0  8.000000435137945 3.999999381757819 0  9 4 0  -9 6 0  -8.000000659057848 5.999998843620175 0  -7.000001217663874 5.999997751863769 0  -6.000001595684297 5.999996795133512 0  -5.000001764276579 5.99999604985388 0  -4.00000090147252 5.99999645005795 0  -3.000000362198942 5.99999731962562 0  -2.000000175105115 5.999998232738196 0  -1.000000148151752 5.999998758749919 0  -1.306965153114592e-07 5.999998887793036 0  0.999999919631085 5.999998716279838 0  2.000000039289279 5.999998253031054 0  3.000000257610474 5.99999749728996 0  4.00000066084951 5.999996715700309 0  5.000001422891096 5.999996348714687 0  6.000001376749062 5.999996987642458 0  7.000001088937822 5.999997870062697 0  8.000000599784387 5.999998900365066 0  9 6 0  -9 8 0  -8.000001237496217 7.999998076347116 0  -7.000002200985769 7.999996217627438 0  -6.000002605605562 7.999994520572045 0  -5.000002158245097 7.999993161599227 0  -4.000000861342891 7.999994944644413 0  -3.000000760347344 7.999997045281495 0  -2.000000891479232 7.999998137911422 0  -1.000000655608477 7.999998369595303 0  -1.626799998414231e-07 7.999998443606301 0  1.00000028484245 7.999998494425533 0  2.00000044387061 7.999998037953591 0  3.000000252505521 7.999997182261033 0  4.000000469798429 7.999995391524067 0  5.000001841979856 7.99999344077265 0  6.000002440630036 7.999994728355707 0  7.000002122349556 7.999996351772967 0  8.000001206952927 7.999998141644841 0  9 8 0  -9 10 0  -8.000002911950924 9.999997049350643 0  -7.000005419782526 9.999994036747697 0  -6.000007023435628 9.999990893702575 0  -5.000006990289384 9.999987535647282 0  -4.000005222184615 9.999992613224672 0  -3.000004908291209 9.999997075517685 0  -2.00000364331574 9.999996698953337 0  -1.000001805701985 9.999996577688577 0  -3.293756359242777e-07 9.999996553000461 0  1.000001139055817 9.999996526269465 0  2.000002924604804 9.999996400032286 0  3.000004827099746 9.99999753618987 0  4.000005202843983 9.999993292869311 0  5.000007093735943 9.999987935576357 0  6.000007172215061 9.999991125748286 0  7.000005544213998 9.99999416767481 0  8.000002980337772 9.999997108998773 0  9 10 0  -9 12 0  -8.00000620284403 11.99999627018377 0  -7.000012255232163 11.99999237766077 0  -6.000017988287858 11.99998812691249 0  -5.000023202223654 11.99998324453729 0  -4.000022575571569 11.99999136234578 0  -3.00002290718661 11.99999939651113 0  -2.000015300719064 11.99999839600569 0  -1.00000756592889 11.99999786828607 0  1.852206003249461e-07 11.9999977544168 0  1.000008019192818 11.99999806206506 0  2.000016035743832 11.99999890462484 0  3.000024248313708 12.00000057999382 0  4.000024006965614 11.99999188854422 0  5.00002432840593 11.99998316165928 0  6.000018729643177 11.99998811615526 0  7.000012709537179 11.99999238600856 0  8.000006419539886 11.99999627765791 0  9 12 0  -9 14 0  -8.000010095492511 13.99999614185748 0  -7.000020367906021 13.99999215149785 0  -6.000031029443584 13.99998788666266 0  -5.000042376420148 13.99998318724574 0  -4.00004267748787 13.99999126196484 0  -3.000042264483009 13.9999994810601 0  -2.000027471549897 13.99999820194917 0  -1.000013391655822 13.9999975035075 0  3.685339859602943e-07 13.99999726978529 0  1.000014169102321 13.9999974582424 0  2.000028362980975 13.99999807802545 0  3.000043310121312 13.99999916854604 0  4.000043897128602 13.99999112258189 0  5.000043762833834 13.99998316702346 0  6.000031972265284 13.99998784519155 0  7.000020954323152 13.99999211719203 0  8.000010376845687 13.99999612356454 0  9 14 0  -9 16 0  -8.000013280376768 15.99999654240494 0  -7.000026923952896 15.99999302324979 0  -6.000041328633084 15.99998938475817 0  -5.000056964816392 15.99998557962364 0  -4.000057598220636 15.99999097052949 0  -3.000056752370572 15.99999630769964 0  -2.000036790441046 15.99999568527854 0  -1.000017938663026 15.9999952798991 0  3.903306319701205e-07 15.99999509647849 0  1.000018745859678 15.99999512915698 0  2.000037677365125 15.99999536851675 0  3.000057774742666 15.99999579822106 0  4.000058674982164 15.99999054502095 0  5.000058068414989 15.99998529081563 0  6.0000421241309 15.99998919891712 0  7.000027437099359 15.99999291090292 0  8.000013531533545 15.99999648922726 0  9 16 0  -9 18 0  -8.000015012417041 17.99999718919004 0  -7.000030435367048 17.99999437234713 0  -6.000046701603269 17.9999915494242 0  -5.000064288160838 17.99998873315945 0  -4.000065007559375 17.99999058387736 0  -3.000064132704138 17.99999243511168 0  -2.000041668949699 17.99999230046225 0  -1.000020394638695 17.99999216848341 0  3.059809825552313e-07 17.99999205880415 0  1.000021018806327 17.99999197337345 0  2.00004232847094 17.99999189765225 0  3.00006484645846 17.99999179869322 0  4.000065742465752 17.99999010097272 0  5.000065026358062 17.99998842543835 0  6.000047246758187 17.99999133710629 0  7.000030793870004 17.99999423926009 0  8.000015190011254 17.99999712509433 0  9 18 0  -9 20 0  -8.000015102271457 19.99999786010073 0  -7.000030573528942 19.99999574575676 0  -6.00004679309454 19.99999368744605 0  -5.000064160132979 19.99999172566124 0  -4.000064806604135 19.99999021708772 0  -3.000064049880171 19.99998871291838 0  -2.000041789886609 19.99998890496143 0  -1.000020555937136 19.99998896785081 0  1.728075424177733e-07 19.99998892413911 0  1.000020904489013 19.99998877875347 0  2.000042146485149 19.99998851973477 0  3.000064417444354 19.99998811769867 0  4.000065165714108 19.99998979461768 0  5.000064514373353 19.99999148531155 0  6.000047062356644 19.9999935133394 0  7.000030754411332 19.99999563288701 0  8.000015193050897 19.99999780466871 0  9 20 0  -9 22 0  -8.00001371614481 21.9999984287838 0  -7.000027718375452 21.99999689502431 0  -6.000042294554596 21.99999543935098 0  -5.000057735137493 21.99999410874694 0  -4.0000582430657 21.9999898886083 0  -3.000057686847925 21.99998567596 0  -2.00003780681347 21.99998602605562 0  -1.000018696516549 21.99998619360645 0  2.788995892709912e-08 21.99998619615485 0  1.000018748997124 21.99998603864881 0  2.000037848821491 21.99998571386539 0  3.00005770949292 21.99998520250933 0  4.000058245515942 21.99998957460018 0  5.000057728194583 21.99999395546341 0  6.000042301537139 21.99999532347953 0  7.000027728535648 21.99999681756772 0  8.000013722817908 21.99999839003764 0  9 22 0  -9 24 0  -8.000011185649701 23.99999884763536 0  -7.000022567364611 23.99999773194011 0  -6.000034338290767 23.99999669096828 0  -5.000046684905526 23.99999576545923 0  -4.00004705318219 23.99998962407079 0  -3.000046707207483 23.99998349267011 0  -2.000030744926014 23.99998387730481 0  -1.00001529359706 23.9999840793503 0  -1.03825588907661e-07 23.99998410836705 0  1.000015078708847 23.99998396763141 0  2.000030507915994 23.99998365426105 0  3.000046431968787 23.99998315951789 0  4.000046754759003 23.99998942109537 0  5.00004637986586 23.99999568990243 0  6.000034125956823 23.99999662932107 0  7.000022433466582 23.99999768871449 0  8.000011120965016 23.99999882543178 0  9 24 0  -9 26 0  -8.000007870875136 25.99999911980671 0  -7.000015859416901 25.99999826995797 0  -6.000024079184024 25.99999748072824 0  -5.000032634892856 25.99999678211849 0  -4.000032893669582 25.99998943713961 0  -3.000032732279822 25.99998210277347 0  -2.000021639347372 25.99998245889166 0  -1.000010844501712 25.99998265719086 0  -2.065888846562983e-07 25.99998269957083 0  1.000010421791996 25.99998258713421 0  2.000021187752437 25.99998232012744 0  3.000032231589126 25.99998189829362 0  4.000032371632998 25.99998932346518 0  5.000032110848072 25.99999675542701 0  6.000023704616625 25.99999745525779 0  7.000015618395688 25.99999825056186 0  8.000007752951454 25.9999991094195 0  9 26 0  -9 28 0  -8.000004085418437 27.99999927059845 0  -7.000008226522674 27.9999985654979 0  -6.000012476278216 27.99999790800392 0  -5.000016881871972 27.99999731927197 0  -4.000017066668791 27.99998933106178 0  -3.000017055279224 27.99998135289434 0  -2.00001134152838 27.99998167174233 0  -1.000005767725534 27.99998185869686 0  -2.712217175998546e-07 27.99998191002966 0  1.00000521461247 27.99998182490605 0  2.000010756195192 27.99998160518114 0  3.000016415555901 27.99998125577222 0  4.000016408369479 27.99998928018929 0  5.000016225518163 27.99999731213476 0  6.000012003157991 27.99999789929896 0  7.000007920175181 27.99999855819348 0  8.000003934953767 27.99999926651474 0  9 28 0  -9
[...]
<PointData  Vectors="f_44-2"> 
<DataArray  type="Float64"  Name="f_44-2"  NumberOfComponents="3" format="ascii">0.0000000000000000e+00 0.0000000000000000e+00 0.0000000000000000e+00  0.0000000000000000e+00 0.0000000000000000e+00 0.0000000000000000e+00  0.0000000000000000e+00 0.0000000000000000e+00 0.0000000000000000e+00  0.0000000000000000e+00 0.0000000000000000e+00 0.0000000000000000e+00  0.0000000000000000e+00 0.0000000000000000e+00 0.0000000000000000e+00  0.0000000000000000e+00 0.0000000000000000e+00 0.0000000000000000e+00  0.0000000000000000e+00 0.0000000000000000e+00 0.0000000000000000e+00  0.0000000000000000e+00 0.0000000000000000e+00 0.0000000000000000e+00  0.0000000000000000e+00 0.0000000000000000e+00 0.0000000000000000e+00  0.0000000000000000e+00 0.0000000000000000e+00 0.0000000000000000e+00  0.0000000000000000e+00 0.0000000000000000e+00 0.0000000000000000e+00  0.0000000000000000e+00 0.0000000000000000e+00 0.0000000000000000e+00  0.0000000000000000e+00 0.0000000000000000e+00 0.0000000000000000e+00  0.0000000000000000e+00 0.0000000000000000e+00 0.0000000000000000e+00  0.0000000000000000e+00 0.0000000000000000e+00 0.0000000000000000e+00  0.0000000000000000e+00 0.0000000000000000e+00 0.0000000000000000e+00  0.0000000000000000e+00 0.0000000000000000e+00 0.0000000000000000e+00  0.0000000000000000e+00 0.0000000000000000e+00 0.0000000000000000e+00  0.0000000000000000e+00 0.0000000000000000e+00 0.0000000000000000e+00  0.0000000000000000e+00 0.0000000000000000e+00 0.0000000000000000e+00  -1.5710791846732590e-05 -1.5885567803660350e-05 0.0000000000000000e+00  -3.3530017182370868e-05 -3.0836263977572644e-05 0.0000000000000000e+00  -5.6949141630076631e-05 -4.4218074249641309e-05 0.0000000000000000e+00  -9.2729362316769224e-05 -5.6158986311368204e-05 0.0000000000000000e+00  -6.6375566623305731e-05 -3.9226625444615675e-05 0.0000000000000000e+00  -3.6784349138927898e-05 -2.8561319258562990e-05 0.0000000000000000e+00  -1.8681765638912692e-05 -2.0913327566499476e-05 0.0000000000000000e+00  -8.0560086510102658e-06 -1.5056661551936751e-05 0.0000000000000000e+00  -2.0168003205361505e-06 -1.2558371833816642e-05 0.0000000000000000e+00  3.6194678479211485e-06 -1.4150212695924238e-05 0.0000000000000000e+00  1.2823065911379145e-05 -1.9520253227394341e-05 0.0000000000000000e+00  2.8536268455314330e-05 -2.6710177856042587e-05 0.0000000000000000e+00  5.2162932929190409e-05 -3.5709942110165020e-05 0.0000000000000000e+00  8.4146312568658378e-05 -4.2670744204323590e-05 0.0000000000000000e+00  5.1387058229133959e-05 -3.6937483412954959e-05 0.0000000000000000e+00  3.0147538971047573e-05 -2.6905704728459969e-05 0.0000000000000000e+00  1.4104460346697742e-05 -1.4131083090620646e-05 0.0000000000000000e+00  0.0000000000000000e+00 0.0000000000000000e+00 0.0000000000000000e+00  0.0000000000000000e+00 0.0000000000000000e+00 0.0000000000000000e+00  -2.2987819481344289e-05 -3.5510574263461650e-05 0.0000000000000000e+00  -4.4660404448501988e-05 -6.7948026008805306e-05 0.0000000000000000e+00  -6.4453827825798214e-05 -9.4199704850400252e-05 0.0000000000000000e+00  -8.2910174469226844e-05 -1.1105107867975641e-04 0.0000000000000000e+00  -5.0647276748838545e-05 -1.0601551835622850e-04 0.0000000000000000e+00  -2.5104548498026528e-05 -8.4430730379591757e-05 0.0000000000000000e+00  -9.9233029523041442e-06 -5.6436934404123757e-05 0.0000000000000000e+00  -3.7654062601633556e-06 -3.4601978694121428e-05 0.0000000000000000e+00  -2.9499420113746138e-06 -2.5719942566797571e-05 0.0000000000000000e+00  -2.4677398870368104e-06 -3.2015514836469196e-05 0.0000000000000000e+00  2.7112198719188713e-06 -5.0089475728815405e-05 0.0000000000000000e+00  1.7452747672764468e-05 -7.5143580057384648e-05 0.0000000000000000e+00  4.2659791343082201e-05 -1.0069454753127407e-04 0.0000000000000000e+00  7.3101384383196744e-05 -1.1141363343807643e-04 0.0000000000000000e+00  5.6695054521168211e-05 -9.1068998972065554e-05 0.0000000000000000e+00  3.9509255470479472e-05 -6.4782728672352862e-05 0.0000000000000000e+00  2.0454406802239014e-05 -3.3687961951871225e-05 0.0000000000000000e+00  0.0000000000000000e+00 0.0000000000000000e+00 0.0000000000000000e+00  0.0000000000000000e+00 0.0000000000000000e+00 0.0000000000000000e+00  -3.5525753366147192e-05 -6.7427935518313319e-05 0.0000000000000000e+00  -6.3307447544465892e-05 -1.2980276321646246e-04 0.0000000000000000e+00  -7.7306865182475611e-05 -1.8178246762743085e-04 0.0000000000000000e+00  -7.5577553454932828e-05 -2.1791789708478765e-04 0.0000000000000000e+00  -2.3123695209703718e-05 -1.8970325183237469e-04 0.0000000000000000e+00  6.2386027010156424e-06 -1.2958854473972173e-04 0.0000000000000000e+00  9.6149432843705963e-06 -6.6520709686555108e-05 0.0000000000000000e+00  1.5814032154208279e-06 -3.0763400334623325e-05 0.0000000000000000e+00  -6.9108022140872103e-06 -2.2666220402049275e-05 0.0000000000000000e+00  -1.3231241969853223e-05 -3.4216128636410903e-05 0.0000000000000000e+00  -1.4989383718950211e-05 -6.5791331786823297e-05 0.0000000000000000e+00  -9.1455215461510996e-06 -1.1810127430146763e-04 0.0000000000000000e+00  1.0682765839822047e-05 -1.7220887979740447e-04 0.0000000000000000e+00  5.6253966479143080e-05 -1.9813029013459720e-04 0.0000000000000000e+00  6.5120968187938486e-05 -1.6896696551467257e-04 0.0000000000000000e+00  5.6347161279812735e-05 -1.2189361694555606e-04 0.0000000000000000e+00  3.2402545017800536e-05 -6.3617493743848213e-05 0.0000000000000000e+00  0.0000000000000000e+00 0.0000000000000000e+00 0.0000000000000000e+00  0.0000000000000000e+00 0.0000000000000000e+00 0.0000000000000000e+00  -7.9039469275267286e-05 -1.1955727663307817e-04 0.0000000000000000e+00  -1.3708352005882931e-04 -2.3323752626732430e-04 0.0000000000000000e+00  -1.5307489133576979e-04 -3.3274189544711213e-04 0.0000000000000000e+00  -1.0718752726051742e-04 -4.0377200789029719e-04 0.0000000000000000e+00  -1.9540824507128763e-05 -2.7615949014456426e-04 0.0000000000000000e+00  -2.2966365501267337e-05 -1.2591303441706036e-04 0.0000000000000000e+00  -4.2616928253362949e-05 -5.0056589845147853e-05 0.0000000000000000e+00  -3.5201552615536336e-05 -3.7371296813371880e-05 0.0000000000000000e+00  -8.2072118974151396e-06 -3.3451584223405915e-05 0.0000000000000000e+00  1.4940189875636875e-05 -2.8146276677334795e-05 0.0000000000000000e+00  1.8225076532516255e-05 -5.9700844943993503e-05 0.0000000000000000e+00  -5.6804361746187627e-06 -1.1633067204999773e-04 0.0000000000000000e+00  -3.1231070808166978e-06 -2.4409894747840332e-04 0.0000000000000000e+00  8.6285489780351480e-05 -3.8551819217783154e-04 0.0000000000000000e+00  1.4410994680616956e-04 -3.1850448941574144e-04 0.0000000000000000e+00  1.3386806311614256e-04 -2.2381515428457818e-04 0.0000000000000000e+00  7.8182144374711016e-05 -1.1491212207999389e-04 0.0000000000000000e+00  0.0000000000000000e+00 0.0000000000000000e+00 0.0000000000000000e+00  0.0000000000000000e+00 0.0000000000000000e+00 0.0000000000000000e+00  -2.0653324989705323e-04 -1.9519331130244552e-04 0.0000000000000000e+00  -3.7906243296363413e-04 -3.9337371584844701e-04 0.0000000000000000e+00  -4.7635606122730945e-04 -5.9759494437431108e-04 0.0000000000000000e+00  -4.3971379304424426e-04 -8.1110654817311576e-04 0.0000000000000000e+00  -3.1131838416579514e-04 -4.2408311132817011e-04 0.0000000000000000e+00  -3.0986704568561314e-04 -8.7497074408473773e-05 0.0000000000000000e+00  -2.3783599811061254e-04 -1.3056787255532706e-04 0.0000000000000000e+00  -1.1494432748647563e-04 -1.4437891024688787e-04 0.0000000000000000e+00  -1.9916208999514744e-05 -1.4755929392514517e-04 0.0000000000000000e+00  7.4432386888409813e-05 -1.4842258355562277e-04 0.0000000000000000e+00  1.9360243514176029e-04 -1.5426088281634247e-04 0.0000000000000000e+00  3.1078750677240294e-04 -5.1925042669611024e-05 0.0000000000000000e+00  3.1927933368786500e-04 -3.6952352451285309e-04 0.0000000000000000e+00  4.5992537920161116e-04 -7.7924098138030390e-04 0.0000000000000000e+00  4.9536129082169847e-04 -5.7874203521690712e-04 0.0000000000000000e+00  3.9316319340113021e-04 -3.8258995396912415e-04 0.0000000000000000e+00  2.1394525894873317e-04 -1.9024203730330262e-04 0.0000000000000000e+00  0.0000000000000000e+00 0.0000000000000000e+00 0.0000000000000000e+00  0.0000000000000000e+00 0.0000000000000000e+00 0.0000000000000000e+00  -4.7003692453636561e-04 -2.5887850449074110e-04 0.0000000000000000e+00  -9.2197347356271658e-04 -5.2934266274408046e-04 0.0000000000000000e+00  -1.3353695396577472e-03 -8.2528002488261394e-04 0.0000000000000000e+00  -1.6852810359245776e-03 -1.1660889516641384e-03 0.0000000000000000e+00  -1.6292423728142046e-03 -5.0185432605007131e-04 0.0000000000000000e+00  -1.6702196704750478e-03 1.5577405935711370e-04 0.0000000000000000e+00  -1.1339595131225446e-03 7.5294150938311560e-05 0.0000000000000000e+00  -5.6335543125493614e-04 3.1960280527041164e-05 0.0000000000000000e+00  1.9244144323779789e-05 2.2634001926099299e-05 0.0000000000000000e+00  6.0812369678270024e-04 4.8330952108476166e-05 0.0000000000000000e+00  1.2001060402410581e-03 1.1754049404457931e-04 0.0000000000000000e+00  1.7822887928646981e-03 2.5204894307533440e-04 0.0000000000000000e+00  1.7435869797151531e-03 -4.5423303254757446e-04 0.0000000000000000e+00  1.7763497027698432e-03 -1.1648676874951760e-03 0.0000000000000000e+00  1.3971356533702432e-03 -8.2158687642153150e-04 0.0000000000000000e+00  9.6053076642747478e-04 -5.2614466923747553e-04 0.0000000000000000e+00  4.8861303270578626e-04 -2.5714620490276097e-04 0.0000000000000000e+00  0.0000000000000000e+00 0.0000000000000000e+00 0.0000000000000000e+00  0.0000000000000000e+00 0.0000000000000000e+00 0.0000000000000000e+00  -8.0593040547176126e-04 -2.7621874806089600e-04 0.0000000000000000e+00  -1.6190282694616114e-03 -5.6341483150174347e-04 0.0000000000000000e+00  -2.4482908943749462e-03 -8.7347320605457254e-04 0.0000000000000000e+00  -3.3073051620241605e-03 -1.2199875625632838e-03 0.0000000000000000e+00  -3.3219074509299247e-03 -4.9432618912682099e-04 0.0000000000000000e+00  -3.3090340615910883e-03 2.4205865682576066e-04 0.0000000000000000e+00  -2.1674813133482546e-03 1.3257748386062747e-04 0.0000000000000000e+00  -1.0597588366872827e-03 7.2273320596950182e-05 0.0000000000000000e+00  3.3286240191366091e-05 5.2738127154800926e-05 0.0000000000000000e+00  1.1294191029201425e-03 7.1038767062614659e-05 0.0000000000000000e+00  2.2458377939777985e-03 1.2815345952496730e-04 0.0000000000000000e+00  3.3990681974778478e-03 2.2742412288183006e-04 0.0000000000000000e+00  3.4262395312629848e-03 -4.9732098493774257e-04 0.0000000000000000e+00  3.4245539317402950e-03 -1.2160596477274806e-03 0.0000000000000000e+00  2.5284438851003932e-03 -8.7306760638970835e-04 0.0000000000000000e+00  1.6691315578364059e-03 -5.6391871972222513e-04 0.0000000000000000e+00  8.3005093665373497e-04 -2.7663822359120263e-04 0.0000000000000000e+00  0.0000000000000000e+00 0.0000000000000000e+00 0.0000000000000000e+00  0.0000000000000000e+00 0.0000000000000000e+00 0.0000000000000000e+00  -1.1131396840258984e-03 -2.4964854187340752e-04 0.0000000000000000e+00  -2.2514007044777159e-03 -5.0603536987896443e-04 0.0000000000000000e+00  -3.4421684192383166e-03 -7.7583884316753844e-04 0.0000000000000000e+00  -4.7176050407965560e-03 -1.0654264098109668e-03 0.0000000000000000e+00  -4.7648184022956626e-03 -4.9927674678722212e-04 0.0000000000000000e+00  -4.7101245763083955e-03 6.2916510322394062e-05 0.0000000000000000e+00  -3.0657196298068119e-03 -6.8359219816635326e-06 0.0000000000000000e+00  -1.4974695336678874e-03 -5.0480733890817046e-05 0.0000000000000000e+00  3.4976904583809041e-05 -6.8493321602300342e-05 0.0000000000000000e+00  1.5695870443564366e-03 -6.1502053088658071e-05 0.0000000000000000e+00  3.1443568694204532e-03 -2.9849926465639810e-05 0.0000000000000000e+00  4.7998998127344039e-03 2.6193451337479382e-05 0.0000000000000000e+00  4.8598468932248120e-03 -5.2961231479262203e-04 0.0000000000000000e+00  4.8152706774623666e-03 -1.0858002754728974e-03 0.0000000000000000e+00  3.5125175929989236e-03 -7.8917173919886561e-04 0.0000000000000000e+00  2.2967790646119747e-03 -5.1421612228211148e-04 0.0000000000000000e+00  1.1353540871888151e-03 -2.5355954180514506e-04 0.0000000000000000e+00  0.0000000000000000e+00 0.0000000000000000e+00 0.0000000000000000e+00  0.0000000000000000e+00 0.0000000000000000e+00 0.0000000000000000e+00  -1.3198488495050030e-03 -1.9612542630102818e-04 0.0000000000000000e+00  -2.6736970807473893e-03 -3.9498898980565712e-04 0.0000000000000000e+00  -4.0973319760323436e-03 -5.9906760328995987e-04 0.0000000000000000e+00  -5.6301367875005830e-03 -8.1026313659131799e-04 0.0000000000000000e+00  -5.6934815633164779e-03 -5.1231617687437709e-04 0.0000000000000000e+00  -5.6251218467467815e-03 -2.1469653940749578e-04 0.0000000000000000e+00  -3.6593778505680675e-03 -2.5057592135442863e-04 0.0000000000000000e+00  -1.7919851944974328e-03 -2.7575735502958506e-04 0.0000000000000000e+00  2.8011786199755302e-05 -2.8973380709347427e-04 0.0000000000000000e+00  1.8491335693303478e-03 -2.9268020547866140e-04 0.0000000000000000e+00  3.7198217777541509e-03 -2.8541293897288249e-04 0.0000000000000000e+00  5.6907672525786457e-03 -2.6950730027240101e-04 0.0000000000000000e+00  5.7622100479184065e-03 -5.5460678230445453e-04 0.0000000000000000e+00  5.7000760485944523e-03 -8.3829161218723397e-04 0.0000000000000000e+00  4.1484914183802478e-03 -6.1858316234985418e-04 0.0000000000000000e+00  2.7071456792745483e-03 -4.0731673494274486e-04 0.0000000000000000e+00  1.3363583540064289e-03 -2.0209275746456534e-04 0.0000000000000000e+00  0.0000000000000000e+00 0.0000000000000000e+00 0.0000000000000000e+00  0.0000000000000000e+00 0.0000000000000000e+00 0.0000000000000000e+00  -1.3905495604794569e-03 -1.3165067783891748e-04 0.0000000000000000e+00  -2.8168253854151904e-03 -2.6308336716280483e-04 0.0000000000000000e+00  -4.3157821439248093e-03 -3.9383001489748436e-04 0.0000000000000000e+00  -5.9268079867960477e-03 -5.2291207220712217e-04 0.0000000000000000e+00  -5.9930706533100420e-03 -5.2621925708983388e-04 0.0000000000000000e+00  -5.9228690803703170e-03 -5.2968685946277062e-04 0.0000000000000000e+00  -3.8596703340172149e-03 -5.3710628825215205e-04 0.0000000000000000e+00  -1.8969467301213330e-03 -5.4587730940846158e-04 0.0000000000000000e+00  1.6546967692457819e-05 -5.5509222596127961e-04 0.0000000000000000e+00  1.9304322491306058e-03 -5.6471106882782080e-04 0.0000000000000000e+00  3.8942961501026380e-03 -5.7552839273196843e-04 0.0000000000000000e+00  5.9592560284834426e-03 -5.8921282320396982e-04 0.0000000000000000e+00  6.0299730633419550e-03 -5.7073147485171307e-04 0.0000000000000000e+00  5.9640220086357876e-03 -5.5129527463716190e-04 0.0000000000000000e+00  4.3434731145323329e-03 -4.1422797889149632e-04 0.0000000000000000e+00  2.8351651152344710e-03 -2.7624860160452069e-04 0.0000000000000000e+00  1.3996786896544352e-03 -1.3810211784347914e-04 0.0000000000000000e+00  0.0000000000000000e+00 0.0000000000000000e+00 0.0000000000000000e+00  0.0000000000000000e+00 0.0000000000000000e+00 0.0000000000000000e+00  -1.3183368480965370e-03 -6.8048861366558439e-05 0.0000000000000000e+00  -2.6692118958247632e-03 -1.3392321092237005e-04 0.0000000000000000e+00  -4.0859258824395457e-03 -1.9525264865590845e-04 0.0000000000000000e+00  -5.6032698424397370e-03 -2.4927345813718124e-04 0.0000000000000000e+00  -5.6637296093076193e-03 -5.4050051287196090e-04 0.0000000000000000e+00  -5.6013334841038325e-03 -8.3174299175225509e-04 0.0000000000000000e+00  -3.6580972096817176e-03 -8.1823252883816099e-04 0.0000000000000000e+00  -1.8049691697680102e-03 -8.1422335376957384e-04 0.0000000000000000e+00  3.5162139620401014e-06 -8.1883648306658053e-04 0.0000000000000000e+00  1.8118337271569979e-03 -8.3194983303049312e-04 0.0000000000000000e+00  3.6644226519819221e-03 -8.5417798910485750e-04 0.0000000000000000e+00  5.6066408365731159e-03 -8.8687440222344146e-04 0.0000000000000000e+00  5.6679784087623900e-03 -5.8092437706208915e-04 0.0000000000000000e+00  5.6070628114710513e-03 -2.7432509965710734e-04 0.0000000000000000e+00  4.0894585949210124e-03 -2.1352313646644179e-04 0.0000000000000000e+00  2.6718787495046119e-03 -1.4585034361386265e-04 0.0000000000000000e+00  1.3197599804523957e-03 -7.3935158661030917e-05 0.0000000000000000e+00  0.0000000000000000e+00 0.0000000000000000e+00 0.0000000000000000e+00  0.0000000000000000e+00 0.0000000000000000e+00 0.0000000000000000e+00  -1.1159645844180854e-03 -1.3145828711818114e-05 0.0000000000000000e+00  -2.2582272453685161e-03 -2.2943779902153275e-05 0.0000000000000000e+00  -3.4535238734560206e-03 -2.5911381354703482e-05 0.0000000000000000e+00  -4.7293943805715869e-03 -1.8299843470127560e-05 0.0000000000000000e+00  -4.7789625192384260e-03 -5.5377015822614646e-04 0.0000000000000000e+00  -4.7299552733460915e-03 -1.0890828109258940e-03 0.0000000000000000e+00  -3.0961214555913115e-03 -1.0613575797060585e-03 0.0000000000000000e+00  -1.5344349970071421e-03 -1.0480837806358171e-03 0.0000000000000000e+00  -8.8420711582103913e-06 -1.0485833874728106e-03 0.0000000000000000e+00  1.5161656326347014e-03 -1.0627331062148554e-03 0.0000000000000000e+00  3.0760647545656655e-03 -1.0909588003596561e-03 0.0000000000000000e+00  4.7068144752983408e-03 -1.1342268659683850e-03 0.0000000000000000e+00  4.7537161672713034e-03 -5.8627244340176787e-04 0.0000000000000000e+00  4.7033778015063005e-03 -3.7786915432388991e-05 0.0000000000000000e+00  3.4353457042055166e-03 -4.0303191035834467e-05 0.0000000000000000e+00  2.2467337227452641e-03 -3.2422776997165036e-05 0.0000000000000000e+00  1.1104002999510160e-03 -1.7848915198117658e-05 0.0000000000000000e+00  0.0000000000000000e+00 0.0000000000000000e+00 0.0000000000000000e+00  0.0000000000000000e+00 0.0000000000000000e+00 0.0000000000000000e+00  -8.0839397046618454e-04 2.8365251270056452e-05 0.0000000000000000e+00  -1.6351399478805489e-03 6.0713578768188885e-05 0.0000000000000000e+00  -2.4988033477330298e-03 1.0111231628433739e-04 0.0000000000000000e+00  -3.4183431106727465e-03 1.5379467829843539e-04 0.0000000000000000e+00  -3.4542743685032017e-03 -5.6507419179683389e-04 0.0000000000000000e+00  -3.4217509040885600e-03 -1.2836869852819856e-03 0.0000000000000000e+00  -2.2455838322724118e-03 -1.2466807891555866e-03 0.0000000000000000e+00  -1.1195392331714870e-03 -1.2268542953938833e-03 0.0000000000000000e+00  -1.8858366237347332e-05 -1.2237335364793372e-03 0.0000000000000000e+00  1.0809466594089410e-03 -1.2372163055146574e-03 0.0000000000000000e+00  2.2043341033632902e-03 -1.2675742639386880e-03 0.0000000000000000e+00  3.3759739096374569e-03 -1.3154263736154101e-03 0.0000000000000000e+00  3.4057705581846793e-03 -5.8760164594876994e-04 0.0000000000000000e+00  3.3689412542874295e-03 1.4065843354813936e-04 0.0000000000000000e+00  2.4635305126633031e-03 9.1329096415922276e-05 0.0000000000000000e+00  1.6124617114779162e-03 5.4230381838637417e-05 0.0000000000000000e+00  7.9730310459180729e-04 2.5136687339080340e-05 0.0000000000000000e+00  0.0000000000000000e+00 0.0000000000000000e+00 0.0000000000000000e+00  0.0000000000000000e+00 0.0000000000000000e+00 0.0000000000000000e+00  -4.2740932023595273e-04 5.3943803601660193e-05 0.0000000000000000e+00  -8.6436967188017620e-04 1.1216896670737512e-04 0.0000000000000000e+00  -1.3205192435999386e-03 1.7900950639045460e-04 0.0000000000000000e+00  -1.8056589010212625e-03 2.5889923252371821e-04 0.0000000000000000e+00  -1.8266656519756292e-03 -5.7383863627255690e-04 0.0000000000000000e+00  -1.8121382968761563e-03 -1.4062626698195632e-03 0.0000000000000000e+00  -1.1945821398457943e-03 -1.3632880100941346e-03 0.0000000000000000e+00  -6.0320065464119512e-04 -1.3388046032320568e-03 0.0000000000000000e+00  -2.5370677866486903e-05 -1.3324723307364516e-03 0.0000000000000000e+00  5.5141163439115823e-04 -1.3442015855653659e-03 0.0000000000000000e+00  1.1396215004484448e-03 -1.3741561773773876e-03 0.0000000000000000e+00  1.7517960114579705e-03 -1.4227407723900606e-03 0.0000000000000000e+00  1.7632741563157507e-03 -5.8543