<?xml version="1.0"?>
<VTKFile type="UnstructuredGrid"  version="0.1"  >
<UnstructuredGrid>
<Piece  NumberOfPoints="589" NumberOfCells="1080">
<Points>
<DataArray  type="Float64"  NumberOfComponents="3"  format="ascii">-9 0 0  -8 0 0  -7 0 0  -6 0 0  -5 0 0  -4 0 0  -3 0 0  -2 0 0  -1 0 0  0 0 0  1 0 0  2 0 0  3 0 0  4 0 0  5 0 0  6 0 0  7 0 0  8 0 0  9 0 0  -9 2 0  -8.000007377625064 1.999988468184166 0  -7.000015488052542 1.999978396431262 0  -6.000026087745375 1.999970975105763 0  -5.00004321883487 1.999966740962567 0  -4.000025145414276 1.999975005855596 0  -3.000006590453776 1.999983061302506 0  -1.999997638202053 1.999990712437502 0  -0.9999963553987998 1.999996757811527 0  1.48218955916939e-07 1.999999381635104 0  0.9999963547938239 1.999997459235038 0  1.999996635706643 1.999991423487923 0  3.000003941018241 1.999984015267402 0  4.000019221761791 1.999976034262453 0  5.000041484579501 1.999972578534319 0  6.000025177050667 1.999973788914627 0  7.000015043199625 1.999979807787309 0  8.000007203256557 1.999989076288135 0  9 2 0  -9.000000000004983 4 0  -8.000011823880691 3.999971096884379 0  -7.000021019102194 3.99994619172036 0  -6.000026049829764 3.999929201793298 0  -5.000027242252598 3.999923863438828 0  -4.000000618565749 3.999927671533041 0  -2.99998282955506 3.999950657420376 0  -1.999978383465918 3.999980651720132 0  -0.9999855179050499 4.000004790952286 0  1.06032549735884e-06 4.000014440892047 0  0.9999873928391046 4.000006584535348 0  1.999979441011445 3.99998563080772 0  2.999983188225312 3.999957261791041 0  4.000000480993691 3.999928593035387 0  5.000026970663779 3.999918544373724 0  6.000025659205313 3.99992834442157 0  7.000020910533508 3.999946617954798 0  8.000011859408783 3.999971532652976 0  9 4 0  -9 6 0  -8.000026783796752 5.999937737630835 0  -7.000043208052401 5.999882329641959 0  -6.000041365082951 5.999840825675304 0  -5.00001897814137 5.999819994641183 0  -3.999966587309144 5.999854087267249 0  -2.999942833855453 5.999925629435354 0  -1.999952398315374 6.000000699069505 0  -0.9999761131949332 6.000042476161826 0  -1.910744321881553e-07 6.000050766115986 0  0.9999780688855371 6.000036972011422 0  1.999961437090792 5.999998952798688 0  2.999955167585241 5.999934707077241 0  3.999967688811477 5.999867948562778 0  5.000012932280376 5.999834487001269 0  6.000039890158824 5.999849009415292 0  7.000043986558166 5.999886867415031 0  8.000027747062489 5.999939782183001 0  9 6 0  -9 8 0  -8.00008317109501 7.999876978684902 0  -7.000138458998967 7.999762870818388 0  -6.000138851977623 7.999669777044254 0  -5.000061221867916 7.999617632550284 0  -3.999959622497087 7.999775784840162 0  -2.999978133405431 7.999961762845783 0  -2.0000161348562 8.000052587262294 0  -1.000019415796804 8.000063174541957 0  3.153663845715603e-06 8.000066309245325 0  1.000019848897628 8.000075537947565 0  2.00001242597925 8.000036967529946 0  2.999967483192855 7.99997141147296 0  3.999952054612059 7.999809226844594 0  5.000052856133645 7.999626181630532 0  6.000145552973946 7.999676359306992 0  7.00014838986219 7.99976691070804 0  8.000089650944403 7.999878835347778 0  9 8 0  -9 10 0  -8.000251000506228 9.999780638992464 0  -7.000453190000925 9.999559468720596 0  -6.000548337612511 9.999335118261365 0  -5.000455318852368 9.999107262936271 0  -4.000294282371049 9.999617969085898 0  -3.000320237682162 10.00005720235974 0  -2.000254823580374 9.999982211613004 0  -1.000113387783671 9.999958137693188 0  -8.93413562374254e-06 9.999952240651892 0  1.000094921102443 9.999952606370226 0  2.000233646526432 9.999949495480095 0  3.000355120189132 10.000109476366 0  4.000338976986068 9.999685955368022 0  5.000524732088378 9.999127011352661 0  6.000610456017415 9.9993423687493 0  7.000498970055356 9.999561547440857 0  8.000275120111068 9.999780983247588 0  9 10 0  -9 12 0  -8.000613653826324 11.99969169235124 0  -7.001195401798713 11.99936905068805 0  -6.001709161301648 11.99901493765217 0  -5.002110108058305 11.99860547057586 0  -4.002027731182119 11.99953647353149 0  -3.002101627395915 12.00045804864864 0  -2.001432576121045 12.00034815831492 0  -1.000689732519389 12.00028955064048 0  8.058879978819011e-05 12.00027976128661 0  1.000857528816037 12.00032086693716 0  2.00162318458466 12.00042434197725 0  3.002342020928934 12.00061874805481 0  4.0022604527886 11.99960017390103 0  5.002314946607902 11.99857300906024 0  6.001863210173871 11.99899345064231 0  7.001298511083458 11.99935537521248 0  8.000665366869487 11.99968494338272 0  9 12 0  -9 14 0  -8.001103063872863 13.99966025809768 0  -7.002208178848035 13.99930482352254 0  -6.003318858834954 13.99891661954096 0  -5.004442348971159 13.99847585268939 0  -4.004454053547283 13.99956330737052 0  -3.004460214985518 14.00066440676086 0  -2.002907136987422 14.00050929988836 0  -1.001376687435905 14.00042597893758 0  0.0001438823348174625 14.00040397068547 0  1.001666608937108 14.00043998424858 0  2.00320250134179 14.00053594689763 0  3.004759961355433 14.00069702771931 0  4.004770792974557 13.99956016671572 0  5.004778942698316 13.99843012826503 0  6.00356564146658 13.99887931285368 0  7.002370558260666 13.99927905520215 0  8.001183708700202 13.99964718381348 0  9 14 0  -9 16 0  -8.001583087934554 15.99969171192062 0  -7.003196747530054 15.99937192297766 0  -6.004874176657259 15.99902892806885 0  -5.006653916059062 15.99865079417249 0  -4.006717724701889 15.99957650218972 0  -3.006657037621076 16.00049719212232 0  -2.004294267300931 16.00038426039609 0  -1.002025452908762 16.00031793415874 0  0.0001986431623571995 16.00029679816669 0  1.002424527692463 16.00032000248772 0  2.004698674920844 16.0003877779791 0  3.007070489319863 16.00050120051663 0  4.007137579084016 15.99953057553394 0  5.007078953801619 15.99855911499725 0  6.005191514927755 15.99896343561805 0  7.003407433453357 15.9993295339546 0  8.001688149304536 15.99967085552872 0  9 16 0  -9 18 0  -8.001939577933941 17.99976920020865 0  -7.003928003503816 17.99953197092268 0  -6.006016654731762 17.99928199444852 0  -5.008261938936347 17.99901319932644 0  -4.008358372462524 17.9995791773355 0  -3.008264927333785 18.00014430238454 0  -2.005309542174088 18.00007359473593 0  -1.002497183470963 18.00002995761683 0  0.000246218840928731 18.00001308562441 0  1.002991146659683 18.00002254119278 0  2.005807983742801 18.00005779456495 0  3.008770465826346 18.00011808457261 0  4.008869098535282 17.99950849176719 0  5.008775240631318 17.99890053048037 0  6.006399731756921 17.99920076750263 0  7.004182459374324 17.9994793166698 0  8.002066526250616 17.99974330874033 0  9 18 0  -9 20 0  -8.002099522757891 19.99987238812626 0  -7.00425606551207 19.9997430401596 0  -6.006528825414102 19.99961040768511 0  -5.008981353583463 19.99947330923176 0  -4.009091457627886 19.99957881686198 0  -3.008982196213947 19.99968336484574 0  -2.005757212692099 19.99965523954633 0  -1.002695208315471 19.99963553622046 0  0.0002876373822326945 19.99962467435321 0  1.003272119776681 19.99962248186896 0  2.006339016371393 19.99962821631964 0  3.009572108307362 19.99964051238831 0  4.009683912447866 19.99949756088458 0  5.009573732606239 19.99935568487011 0  6.006970640158784 19.9995249446262 0  7.004549436789088 19.9996873738638 0  8.002245858405061 19.99984494720374 0  8.999999999982364 19.99999999999385 0  -9 22 0  -8.002030314750492 21.99998250054892 0  -7.004116971117854 21.99996724631755 0  -6.006318087845685 21.9999566955188 0  -5.008695320075574 21.99995373738558 0  -4.008803139788331 21.99957406459298 0  -3.008695693626913 21.99919330752342 0  -2.005557550493911 21.99920339720162 0  -1.002578748021043 21.99920596876931 0  0.0003225268226674591 21.99920180640931 0  1.003225619717854 21.99919092066488 0  2.006209883548538 21.99917256310284 0  3.009357156724528 21.99914521188393 0  4.009465221877072 21.99949415404934 0  5.009354805450346 21.9998436359611 0  6.00680979185168 21.99987643108314 0  7.004443387348813 21.99991483123601 0  8.002193103685498 21.99995662129179 0  9 22 0  -9 24 0  -8.001734627527167 24.00008363622478 0  -7.003517682532746 24.00017264297014 0  -6.005398972479698 24.00027261163434 0  -5.007430964624959 24.00038959159243 0  -4.007523865037014 23.9995650659659 0  -3.007432139541218 23.99873952954944 0  -2.004724994897708 23.99878145105593 0  -1.002154233433544 23.99880317179419 0  0.0003502636295892705 23.99880566616623 0  1.002856744379818 23.99878906957765 0  2.005433475663185 23.99875268315911 0  3.008150635469841 23.99869496789585 0  4.008241407238319 23.99949624623082 0  5.008144029340649 24.0002977525511 0  6.005930484067792 24.0002054659385 0  7.003870458226606 24.00012870410701 0  8.001910539487961 24.00006191462873 0  9 24 0  -9 26 0  -8.00124395088927 26.00016331611589 0  -7.002522939325872 26.00033421101373 0  -6.003872983899434 26.00052048926343 0  -5.005331859126738 26.00073042458533 0  -4.005400173410445 25.99955233649628 0  -3.005334665767884 25.99837342743703 0  -2.003351224660243 25.99843989767628 0  -1.001466617078522 25.99847687581162 0  0.0003702542372349221 25.99848548139959 0  1.002209219910201 25.99846595982577 0  2.00410013131535 25.99841768349755 0  3.00609415047283 25.99833914896593 0  4.006157551501131 25.99950195948996 0  5.00608338442031 26.00066477213587 0  6.004433116712396 26.00047239386091 0  7.002894688553925 26.00030269148802 0  8.001429317064236 26.00014771922498 0  9 26 0  -9 28 0  -8.000611631815495 28.00021271011602 0  -7.00124125860444 28.0004342667944 0  -6.001907435726342 28.00067374704509 0  -5.002629555719228 28.00094069654634 0  -4.002666642832265 27.99953702275354 0  -3.002634238079409 27.99813285711669 0  -2.001586358531096 27.99821588274987 0  -1.000589974982636 27.99826363500747 0  0.0003820585521248837 27.99827736330627 0  1.001356229490419 27.99825741799783 0  2.00235904398559 27.99820325123052 0  3.003417705291319 27.99811341530623 0  4.003447278668374 27.99950999431091 0  5.003403508083904 28.00090648820447 0  6.002484307233971 28.0006486387142 0  7.001624130786832 28.00041778791935 0 
[...]
<PointData  Vectors="f_44-2"> 
<DataArray  type="Float64"  Name="f_44-2"  NumberOfComponents="3" format="ascii">0.0000000000000000e+00 0.0000000000000000e+00 0.0000000000000000e+00  0.0000000000000000e+00 0.0000000000000000e+00 0.0000000000000000e+00  0.0000000000000000e+00 0.0000000000000000e+00 0.0000000000000000e+00  0.0000000000000000e+00 0.0000000000000000e+00 0.0000000000000000e+00  0.0000000000000000e+00 0.0000000000000000e+00 0.0000000000000000e+00  0.0000000000000000e+00 0.0000000000000000e+00 0.0000000000000000e+00  0.0000000000000000e+00 0.0000000000000000e+00 0.0000000000000000e+00  0.0000000000000000e+00 0.0000000000000000e+00 0.0000000000000000e+00  0.0000000000000000e+00 0.0000000000000000e+00 0.0000000000000000e+00  0.0000000000000000e+00 0.0000000000000000e+00 0.0000000000000000e+00  0.0000000000000000e+00 0.0000000000000000e+00 0.0000000000000000e+00  0.0000000000000000e+00 0.0000000000000000e+00 0.0000000000000000e+00  0.0000000000000000e+00 0.0000000000000000e+00 0.0000000000000000e+00  0.0000000000000000e+00 0.0000000000000000e+00 0.0000000000000000e+00  0.0000000000000000e+00 0.0000000000000000e+00 0.0000000000000000e+00  0.0000000000000000e+00 0.0000000000000000e+00 0.0000000000000000e+00  0.0000000000000000e+00 0.0000000000000000e+00 0.0000000000000000e+00  0.0000000000000000e+00 0.0000000000000000e+00 0.0000000000000000e+00  0.0000000000000000e+00 0.0000000000000000e+00 0.0000000000000000e+00  0.0000000000000000e+00 0.0000000000000000e+00 0.0000000000000000e+00  3.1706703390375633e-05 4.2505507804406604e-05 0.0000000000000000e+00  6.6292495970626380e-05 8.0186169792805691e-05 0.0000000000000000e+00  1.1031317160606440e-04 1.0918027078336808e-04 0.0000000000000000e+00  1.7858676119309082e-04 1.2795454283323832e-04 0.0000000000000000e+00  1.1105010951966538e-04 9.4048230894683342e-05 0.0000000000000000e+00  4.1239678405115249e-05 6.4215481369347277e-05 0.0000000000000000e+00  6.0074552009079623e-06 3.7192788039461572e-05 0.0000000000000000e+00  -2.4495412400039867e-06 1.5784396657527848e-05 0.0000000000000000e+00  5.9657577530642950e-06 5.9779325901554354e-06 0.0000000000000000e+00  1.6205222619363534e-05 1.1227315364893275e-05 0.0000000000000000e+00  1.3907359823415723e-05 2.9806726283900363e-05 0.0000000000000000e+00  -1.0376149621303408e-05 5.2374452307476497e-05 0.0000000000000000e+00  -5.9019069021373549e-05 7.5435604345398715e-05 0.0000000000000000e+00  -1.2782274299066244e-04 8.1099788516014355e-05 0.0000000000000000e+00  -7.5094676949070973e-05 7.9219377925124397e-05 0.0000000000000000e+00  -4.3810210581062661e-05 6.1695961299738160e-05 0.0000000000000000e+00  -2.0710948338825522e-05 3.3555274257287351e-05 0.0000000000000000e+00  0.0000000000000000e+00 0.0000000000000000e+00 0.0000000000000000e+00  0.0000000000000000e+00 0.0000000000000000e+00 0.0000000000000000e+00  5.1895607737468318e-05 1.0430492258641563e-04 0.0000000000000000e+00  9.4845542962954495e-05 1.9511446613863320e-04 0.0000000000000000e+00  1.2361396467854620e-04 2.5923764864304195e-04 0.0000000000000000e+00  1.3919191203915532e-04 2.8411225139167201e-04 0.0000000000000000e+00  4.4358027972444684e-05 2.6752857824823549e-04 0.0000000000000000e+00  -2.0203183011428690e-05 1.8668398121924294e-04 0.0000000000000000e+00  -3.9594927459461594e-05 8.2288982604698219e-05 0.0000000000000000e+00  -1.9823910399485464e-05 -1.6738773348677106e-06 0.0000000000000000e+00  2.1437242860746584e-05 -3.6703683134593196e-05 0.0000000000000000e+00  6.4088650984239117e-05 -1.3892860803662610e-05 0.0000000000000000e+00  8.8711975427487641e-05 5.1404811990724101e-05 0.0000000000000000e+00  7.6080178850573284e-05 1.3961433438170671e-04 0.0000000000000000e+00  2.0637941471726197e-05 2.2612017887016343e-04 0.0000000000000000e+00  -6.3462224573771807e-05 2.4778457875110002e-04 0.0000000000000000e+00  -6.4413892686706451e-05 2.2100766516426889e-04 0.0000000000000000e+00  -5.4878438870916929e-05 1.6585573738133055e-04 0.0000000000000000e+00  -3.1866682618007166e-05 8.8763381155506629e-05 0.0000000000000000e+00  0.0000000000000000e+00 0.0000000000000000e+00 0.0000000000000000e+00  0.0000000000000000e+00 0.0000000000000000e+00 0.0000000000000000e+00  1.0786024131090098e-04 2.2005965596493777e-04 0.0000000000000000e+00  1.8012409750358684e-04 4.1676412413826116e-04 0.0000000000000000e+00  1.8967721164136987e-04 5.6626646539748428e-04 0.0000000000000000e+00  1.2892879763850581e-04 6.4581730725775041e-04 0.0000000000000000e+00  -5.1363984543123124e-05 5.2575147336337755e-04 0.0000000000000000e+00  -1.3409518179631347e-04 2.7921477481103587e-04 0.0000000000000000e+00  -1.0328615235677979e-04 2.1932479126932552e-05 0.0000000000000000e+00  -2.5522663985401909e-05 -1.2030024245443494e-04 0.0000000000000000e+00  5.1868129200876762e-05 -1.5004148119372648e-04 0.0000000000000000e+00  1.2005322753601813e-04 -1.0749144427639046e-04 0.0000000000000000e+00  1.7108631724992136e-04 1.2086464111157658e-05 0.0000000000000000e+00  1.8973966692453236e-04 2.1429284985793033e-04 0.0000000000000000e+00  1.4905774446174921e-04 4.2199673013242783e-04 0.0000000000000000e+00  2.6086258210098127e-06 5.1912966296189915e-04 0.0000000000000000e+00  -9.5681316486837111e-05 4.7627469510611319e-04 0.0000000000000000e+00  -1.1984539229711538e-04 3.5775291031494715e-04 0.0000000000000000e+00  -7.8432571911585104e-05 1.9063252737764306e-04 0.0000000000000000e+00  0.0000000000000000e+00 0.0000000000000000e+00 0.0000000000000000e+00  0.0000000000000000e+00 0.0000000000000000e+00 0.0000000000000000e+00  3.0620485089643575e-04 4.2889297976785750e-04 0.0000000000000000e+00  5.1620061193306224e-04 8.2709403907098170e-04 0.0000000000000000e+00  5.3692213186031564e-04 1.1529756750971868e-03 0.0000000000000000e+00  2.8934541449155939e-04 1.3378754182747006e-03 0.0000000000000000e+00  -5.7096481560179520e-05 7.9201756533483548e-04 0.0000000000000000e+00  1.1452673789846320e-05 1.5386266576330527e-04 0.0000000000000000e+00  1.4437144437499469e-04 -1.5291922776535760e-04 0.0000000000000000e+00  1.5494358113029625e-04 -1.8295035466220884e-04 0.0000000000000000e+00  7.5048720453006732e-05 -1.9091573432552161e-04 0.0000000000000000e+00  1.2648146785393641e-05 -2.2157336760897408e-04 0.0000000000000000e+00  3.0574231094288171e-05 -1.0253529234990647e-04 0.0000000000000000e+00  1.7196863218752671e-04 1.0146883242111286e-04 0.0000000000000000e+00  2.1781508744892045e-04 6.1508722391611173e-04 0.0000000000000000e+00  -1.0963239069080921e-04 1.1961391948830304e-03 0.0000000000000000e+00  -4.2336277930258605e-04 1.0340376914597551e-03 0.0000000000000000e+00  -4.4701873118798145e-04 7.4391420913120642e-04 0.0000000000000000e+00  -2.7299133625797165e-04 3.8645218607926134e-04 0.0000000000000000e+00  0.0000000000000000e+00 0.0000000000000000e+00 0.0000000000000000e+00  0.0000000000000000e+00 0.0000000000000000e+00 0.0000000000000000e+00  8.8878094733356742e-04 7.6000737898612996e-04 0.0000000000000000e+00  1.6082602439114627e-03 1.5259735945478887e-03 0.0000000000000000e+00  1.9567523789048970e-03 2.3023730917495081e-03 0.0000000000000000e+00  1.6532431259853938e-03 3.0900750707055836e-03 0.0000000000000000e+00  1.1040379297847457e-03 1.3257893773889597e-03 0.0000000000000000e+00  1.2031253646202253e-03 -1.8609954623204775e-04 0.0000000000000000e+00  9.7991467722786376e-04 9.0468732254486405e-05 0.0000000000000000e+00  4.9290423778078764e-04 1.7942255828727667e-04 0.0000000000000000e+00  1.3808942865973817e-04 2.0109364798210919e-04 0.0000000000000000e+00  -2.1077192370552085e-04 1.9774099661265269e-04 0.0000000000000000e+00  -6.6973310820384057e-04 2.0069581960130339e-04 0.0000000000000000e+00  -1.0828784860815160e-03 -3.2570118853268731e-04 0.0000000000000000e+00  -1.0397517745316853e-03 1.0204779008189779e-03 0.0000000000000000e+00  -1.6292314342387564e-03 2.8013135186850976e-03 0.0000000000000000e+00  -1.9100916157191272e-03 2.1029293132368370e-03 0.0000000000000000e+00  -1.5641392341416566e-03 1.3988949419867251e-03 0.0000000000000000e+00  -8.6289472635786102e-04 6.9789423798377723e-04 0.0000000000000000e+00  0.0000000000000000e+00 0.0000000000000000e+00 0.0000000000000000e+00  0.0000000000000000e+00 0.0000000000000000e+00 0.0000000000000000e+00  2.1457598131190358e-03 1.0662459849648427e-03 0.0000000000000000e+00  4.1796965306927563e-03 2.1813646248472042e-03 0.0000000000000000e+00  5.9760070455107291e-03 3.4039393113939908e-03 0.0000000000000000e+00  7.3787122888168584e-03 4.8158435254512782e-03 0.0000000000000000e+00  7.1047091071981131e-03 1.5953212536692120e-03 0.0000000000000000e+00  7.3744975878095708e-03 -1.5934459126380974e-03 0.0000000000000000e+00  5.1792058738170648e-03 -1.1821142300252579e-03 0.0000000000000000e+00  2.7260445196660059e-03 -9.4846686684037262e-04 0.0000000000000000e+00  1.7044887376020817e-04 -8.8190850658349188e-04 0.0000000000000000e+00  -2.4222044492091294e-03 -9.8700472129282829e-04 0.0000000000000000e+00  -5.0009125330844010e-03 -1.2998492451621905e-03 0.0000000000000000e+00  -7.4630853813456308e-03 -1.9129685243852049e-03 0.0000000000000000e+00  -7.2098763916281661e-03 1.2994395911718293e-03 0.0000000000000000e+00  -7.3605996410725603e-03 4.5381939737946303e-03 0.0000000000000000e+00  -5.8979710159833562e-03 3.1922299069683962e-03 0.0000000000000000e+00  -4.0993822602952762e-03 2.0403953864359787e-03 0.0000000000000000e+00  -2.0975369940413788e-03 9.9607707666649146e-04 0.0000000000000000e+00  0.0000000000000000e+00 0.0000000000000000e+00 0.0000000000000000e+00  0.0000000000000000e+00 0.0000000000000000e+00 0.0000000000000000e+00  3.8442395276251486e-03 1.1758159291002954e-03 0.0000000000000000e+00  7.6923737972941558e-03 2.4048926118135426e-03 0.0000000000000000e+00  1.1553845068721374e-02 3.7452093976736447e-03 0.0000000000000000e+00  1.5451113533557503e-02 5.2640131832189683e-03 0.0000000000000000e+00  1.5501029435425915e-02 1.4932700182335287e-03 0.0000000000000000e+00  1.5539604063522627e-02 -2.3266137171848895e-03 0.0000000000000000e+00  1.0420905116704179e-02 -1.7461421112009178e-03 0.0000000000000000e+00  5.3738553773015557e-03 -1.4099227130330730e-03 0.0000000000000000e+00  3.4998289434063994e-04 -1.2800316077303210e-03 0.0000000000000000e+00  -4.6974490767362166e-03 -1.3428583558963039e-03 0.0000000000000000e+00  -9.8137543709847560e-03 -1.6023088844808403e-03 0.0000000000000000e+00  -1.5038573869662756e-02 -2.0730627936186592e-03 0.0000000000000000e+00  -1.5086027580772496e-02 1.4315192142249637e-03 0.0000000000000000e+00  -1.5083567492576909e-02 4.9116157365949684e-03 0.0000000000000000e+00  -1.1216336806971707e-02 3.5006495665640962e-03 0.0000000000000000e+00  -7.4398508291068114e-03 2.2492158984602538e-03 0.0000000000000000e+00  -3.7100876665383943e-03 1.0998745434563086e-03 0.0000000000000000e+00  0.0000000000000000e+00 0.0000000000000000e+00 0.0000000000000000e+00  0.0000000000000000e+00 0.0000000000000000e+00 0.0000000000000000e+00  5.5192337515536363e-03 1.0715576882122729e-03 0.0000000000000000e+00  1.1138695118716549e-02 2.1818007716704075e-03 0.0000000000000000e+00  1.6967577029578296e-02 3.3700383602513050e-03 0.0000000000000000e+00  2.3133620070582863e-02 4.6761566644378744e-03 0.0000000000000000e+00  2.3357512055494280e-02 1.4395783004847553e-03 0.0000000000000000e+00  2.3167738975669296e-02 -1.7819333384335549e-03 0.0000000000000000e+00  1.5396369214193972e-02 -1.3394314162861046e-03 0.0000000000000000e+00  7.9380330113458988e-03 -1.0511008063584931e-03 0.0000000000000000e+00  6.2372516440607382e-04 -9.1180775009122551e-04 0.0000000000000000e+00  -6.7061888532217008e-03 -9.1664373439368971e-04 0.0000000000000000e+00  -1.4211842689647208e-02 -1.0639504361389064e-03 0.0000000000000000e+00  -2.2064351094995042e-02 -1.3544369527773998e-03 0.0000000000000000e+00  -2.2291048332285283e-02 1.5265647378100474e-03 0.0000000000000000e+00  -2.2077772852469018e-02 4.4076617275427190e-03 0.0000000000000000e+00  -1.6149241731664290e-02 3.1680133639758810e-03 0.0000000000000000e+00  -1.0579834237930505e-02 2.0476206982422791e-03 0.0000000000000000e+00  -5.2357976394573373e-03 1.0047396483383628e-03 0.0000000000000000e+00  0.0000000000000000e+00 0.0000000000000000e+00 0.0000000000000000e+00  0.0000000000000000e+00 0.0000000000000000e+00 0.0000000000000000e+00  6.7854752597488162e-03 8.1233968992139858e-04 0.0000000000000000e+00  1.3731885490417317e-02 1.6460567644651304e-03 0.0000000000000000e+00  2.1008734277001846e-02 2.5220272837473065e-03 0.0000000000000000e+00  2.8802284584120520e-02 3.4601326128343040e-03 0.0000000000000000e+00  2.9131995819635426e-02 1.4194666854869941e-03 0.0000000000000000e+00  2.8831945777727658e-02 -6.2077680431159223e-04 0.0000000000000000e+00  1.9146197069022028e-02 -3.1730674147771533e-04 0.0000000000000000e+00  9.9383556497854991e-03 -1.0138672365854011e-04 0.0000000000000000e+00  9.6064522542911037e-04 2.7748471872949568e-05 0.0000000000000000e+00  -8.0225154340375898e-03 7.4405963263664190e-05 0.0000000000000000e+00  -1.7246244931293758e-02 4.2322926000330050e-05 0.0000000000000000e+00  -2.6956800160460453e-02 -6.3417788512313297e-05 0.0000000000000000e+00  -2.7278846963769442e-02 1.5923776570754345e-03 0.0000000000000000e+00  -2.6961082715319589e-02 3.2404774589484941e-03 0.0000000000000000e+00  -1.9620211720467295e-02 2.3559327946594960e-03 0.0000000000000000e+00  -1.2802348903433887e-02 1.5348494775714377e-03 0.0000000000000000e+00  -6.3194585839741226e-03 7.5663913423317701e-04 0.0000000000000000e+00  0.0000000000000000e+00 0.0000000000000000e+00 0.0000000000000000e+00  0.0000000000000000e+00 0.0000000000000000e+00 0.0000000000000000e+00  7.4002653667747048e-03 4.6774794257338086e-04 0.0000000000000000e+00  1.4988103969169600e-02 9.4111308514377261e-04 0.0000000000000000e+00  2.2958180166843593e-02 1.4249837008210519e-03 0.0000000000000000e+00  3.1519239722624673e-02 1.9228863308076937e-03 0.0000000000000000e+00  3.1891531924215524e-02 1.4065190306479813e-03 0.0000000000000000e+00  3.1538969039877990e-02 8.9136325447953244e-04 0.0000000000000000e+00  2.1013465515947585e-02 1.0514533163180563e-03 0.0000000000000000e+00  1.1032427783797471e-02 1.1856587136479123e-03 0.0000000000000000e+00  1.3201669222695331e-03 1.2934429702297215e-03 0.0000000000000000e+00  -8.3886562118612278e-03 1.3767857687535629e-03 0.0000000000000000e+00  -1.8359062265664975e-02 1.4398969297294228e-03 0.0000000000000000e+00  -2.8865683673902912e-02 1.4894197595633595e-03 0.0000000000000000e+00  -2.9221550337213336e-02 1.6188654238894790e-03 0.0000000000000000e+00  -2.8861516780745493e-02 1.7431233554931912e-03 0.0000000000000000e+00  -2.0973045511950259e-02 1.2895191284150169e-03 0.0000000000000000e+00  -1.3668410096869300e-02 8.5045086863498121e-04 0.0000000000000000e+00  -6.7414996652838954e-03 4.2232372554782684e-04 0.0000000000000000e+00  -7.9334285377879984e-10 0.0000000000000000e+00 0.0000000000000000e+00  0.0000000000000000e+00 0.0000000000000000e+00 0.0000000000000000e+00  7.2576745341005732e-03 1.0085066449710198e-04 0.0000000000000000e+00  1.4700315103256907e-02 1.9421140219303863e-04 0.0000000000000000e+00  2.2518533983103765e-02 2.7183116661144973e-04 0.0000000000000000e+00  3.0913999640178432e-02 3.2391649151542113e-04 0.0000000000000000e+00  3.1277911272554020e-02 1.4075784142278753e-03 0.0000000000000000e+00  3.0932354880262948e-02 2.4934758740200371e-03 0.0000000000000000e+00  2.0732003449583015e-02 2.5225697444486469e-03 0.0000000000000000e+00  1.1065060508058564e-02 2.5771885956894129e-03 0.0000000000000000e+00  1.6661369169730825e-03 2.6556151242313861e-03 0.0000000000000000e+00  -7.7218530138283802e-03 2.7589241236085364e-03 0.0000000000000000e+00  -1.7355631043724864e-02 2.8909098803014672e-03 0.0000000000000000e+00  -2.7499509958135642e-02 3.0581279859790275e-03 0.0000000000000000e+00  -2.7833905379907695e-02 1.6215259431989813e-03 0.0000000000000000e+00  -2.7481623265161775e-02 1.8220544121514182e-04 0.0000000000000000e+00  -1.9965952288565444e-02 1.6507514287891387e-04 0.0000000000000000e+00  -1.3008697668239833e-02 1.2281229716238097e-04 0.0000000000000000e+00  -6.4148276428572732e-03 6.5077315310595193e-05 0.0000000000000000e+00  0.0000000000000000e+00 0.0000000000000000e+00 0.0000000000000000e+00  0.0000000000000000e+00 0.0000000000000000e+00 0.0000000000000000e+00  6.3680077024566495e-03 -2.3606638313818180e-04 0.0000000000000000e+00  1.2894937565611766e-02 -4.8967333760404816e-04 0.0000000000000000e+00  1.9744513414852546e-02 -7.7905437246957423e-04 0.0000000000000000e+00  2.7087898256537866e-02 -1.1240885277487354e-03 0.0000000000000000e+00  2.7404449132057938e-02 1.4249358757154871e-03 0.0000000000000000e+00  2.7111710978480062e-02 3.9763800110294350e-03 0.0000000000000000e+00  1.8345055316903780e-02 3.8927330900710862e-03 0.0000000000000000e+00  1.0038651632422678e-02 3.8745784719021095e-03 0.0000000000000000e+00  1.9677850312479822e-03 3.9193696200211670e-03 0.0000000000000000e+00  -6.0861504731060147e-03 4.0275633391579097e-03 0.0000000000000000e+00  -1.4341338067165863e-02 4.2023868122918378e-03 0.0000000000000000e+00  -2.3021513600343931e-02 4.4498602561031499e-03 0.0000000000000000e+00  -2.3291705591304911e-02 1.6105345332314562e-03 0.0000000000000000e+00  -2.2986909719653635e-02 -1.2300720628149757e-03 0.0000000000000000e+00  -1.6701043479074695e-02 -8.5867154097011374e-04 0.0000000000000000e+00  -1.0881175366928595e-02 -5.4281230586077545e-04 0.0000000000000000e+00  -5.3655193349419856e-03 -2.6266795127763247e-04 0.0000000000000000e+00  0.0000000000000000e+00 0.0000000000000000e+00 0.0000000000000000e+00  0.0000000000000000e+00 0.0000000000000000e+00 0.0000000000000000e+00  4.8338227852449721e-03 -5.0293978906700953e-04 0.0000000000000000e+00  9.7836055136320699e-03 -1.0303043324417496e-03 0.0000000000000000e+00  1.4968534873882005e-02 -1.6072291269997030e-03 0.0000000000000000e+00  2.0512834677694432e-02 -2.2604056344972491e-03 0.0000000000000000e+00  2.0752562611218585e-02 1.4588492591895228e-03 0.0000000000000000e+00  2.0546011733650470e-02 5.1799806061685674e-03 0.0000000000000000e+00  1.4143394837327610e-02 5.0043737480037764e-03 0.0000000000000000e+00  8.0823337226738276e-03 4.9227124393251623e-03 0.0000000000000000e+00  2.2005849567552764e-03 4.9320878418044559e-03 0.0000000000000000e+00  -3.6600298868778463e-03 5.0323436492648293e-03 0.0000000000000000e+00  -9.6567394938094978e-03 5.2260629635727833e-03 0.0000000000000000e+00  -1.5950426334453864e-02 5.5186638144080211e-03 0.0000000000000000e+00  -1.6126445304959859e-02 1.5940331912140538e-03 0.0000000000000000e+00  -1.5898754897165916e-02 -2.3311671783635690e-03 0.0000000000000000e+00  -1.1548172929595360e-02 -1.6602760102387790e-03 0.0000000000000000e+00  -7.5222708512788705e-03 -1.0656559018042090e-03 0.0000000000000000e+00  -3.7087367898694830e-03 -5.2061198464330063e-04 0.0000000000000000e+00  0.0000000000000000e+00 0.0000000000000000e+00 0.0000000000000000e+00  0.0000000000000000e+00 0.0000000000000000e+00 0.0000000000000000e+00  2.8264259735950813e-03 -6.7225394156704974e-04 0.0000000000000000e+00  5.7145485741442927e-03 -1.3727369070232376e-03 0.0000000000000000e+00  8.7280791399735186e-03 -2.1303794557281136e-03 0.0000000000000000e+00  1.1932992898410915e-02 -2.9756021699392536e-03 0.0000000000000000e+00  1.2075317432219398e-02 1.5058764908134088e-03 0.0000000000000000e+00  1.1975657077777367e-02 5.9878709039884129e-03 0.0000000000000000e+00  8.6019772268810992e-03 5.7427728532554075e-03 0.0000000000000000e+00  5.4207356945840703e-03 5.6093354145143577e-03 0.0000000000000000e+00  2.3464774220286508e-03 5.5839878490433576e-03 0.0000000000000000e+00  -7.0367687831898826e-04 5.6659836834849833e-03 0.0000000000000000e+00  -3.8121385770475136e-03 5.8573148689264228e-03 0.0000000000000000e+00  -7.0629689211303311e-03 6.1627186399071873e-03 0.0000000000000000e+00  -7.1275155684359078e-03 1.5760985421501227e-03 0.0000000000000000e+00  -6.9976280479445438e-03 -3.0112389097372979e-03 0.0000000000000000e+00  -5.0717405230200933e-03 -2.1570175753759901e-03 0.00000