<?xml version="1.0"?>
<VTKFile type="UnstructuredGrid"  version="0.1"  >
<UnstructuredGrid>
<Piece  NumberOfPoints="589" NumberOfCells="1080">
<Points>
<DataArray  type="Float64"  NumberOfComponents="3"  format="ascii">-9 0 0  -8 0 0  -7 0 0  -6 0 0  -5 0 0  -4 0 0  -3 0 0  -2 0 0  -1 0 0  0 0 0  1 0 0  2 0 0  3 0 0  4 0 0  5 0 0  6 0 0  7 0 0  8 0 0  9 0 0  -9 2 0  -8.000007554805348 1.999988236614287 0  -7.000015858748878 1.999977958800991 0  -6.000026704610257 1.999970377242595 0  -5.000044215846779 1.99996603643183 0  -4.000025773375554 1.999974490309033 0  -3.000006835481059 1.999982708136156 0  -1.999997687480956 1.999990504543816 0  -0.9999963526340695 1.999996664920034 0  1.124408392757935e-07 1.999999341597962 0  0.9999962703071289 1.999997391760992 0  1.999996568905562 1.999991257570759 0  3.000004008709378 1.999983729540926 0  4.000019553392805 1.999975625961425 0  5.000042187567348 1.999972140288786 0  6.000025589587939 1.999973362348731 0  7.00001528329226 1.999979476183063 0  8.000007316503927 1.999988896100494 0  9 2 0  -9.000000000004983 4 0  -8.000012112889983 3.999970531736766 0  -7.000021549884988 3.999945133172525 0  -6.000026747641241 3.999927791817768 0  -5.000028037719686 3.999922310999267 0  -4.000000900835755 3.999926210380556 0  -2.999982759856131 3.999949630060323 0  -1.999978202209621 3.999980183872913 0  -0.9999854335339708 4.000004772678835 0  9.330800508054874e-07 4.000014610867596 0  0.9999870462512779 4.000006634674358 0  1.999978970597891 3.999985334895619 0  2.999982791501558 3.999956498148452 0  4.000000384448698 3.999927371738899 0  5.000027324703676 3.999917211403019 0  6.000026012249581 3.999927158178387 0  7.000021208314804 3.999945728954895 0  8.000012031501303 3.999971057223334 0  9 4 0  -9 6 0  -8.000027373540302 5.99993655205822 0  -7.000044197898445 5.999880082416914 0  -6.00004242133766 5.999837767855947 0  -5.000019726550035 5.999816498359286 0  -3.999966368397193 5.999851233239057 0  -2.999942167556775 5.999924092019056 0  -1.999951889247733 6.000000534996754 0  -0.9999760111229766 6.000043071354386 0  -4.934815281885289e-07 6.000051521344819 0  0.9999774117350239 6.000037502136352 0  1.999960516778223 5.999998849322076 0  2.999954155074926 5.999933532750404 0  3.999966897721249 5.999865675497233 0  5.000012923442743 5.999831703904194 0  6.00004040077803 5.999846461546015 0  7.000044623697169 5.99988495584207 0  8.000028163564297 5.999938764197807 0  9 6 0  -9 8 0  -8.000084819059092 7.999874677505356 0  -7.000141242442551 7.999758431375795 0  -6.00014176356704 7.999663583530184 0  -5.000062831296161 7.999610434360917 0  -3.999959382248516 7.999771498810174 0  -2.999978254044529 7.999960879992712 0  -2.000016959049495 8.0000533401416 0  -1.000020290627424 8.000064087714454 0  2.710474933181136e-06 8.000067264671838 0  1.00001974571407 8.000076655037297 0  2.000012235471514 8.000037454995379 0  2.999966551257693 7.999970817454916 0  3.999950889893899 7.999805913845454 0  5.000053434188534 7.999619793890989 0  6.000147792439083 7.99967084645531 0  7.000150754446636 7.999762948094063 0  8.000091094853891 7.999876777743115 0  9 8 0  -9 10 0  -8.000255753371661 9.999776573162167 0  -7.000461795412744 9.999551304485893 0  -6.000558822499317 9.999322798139065 0  -5.000464214082285 9.999090723891674 0  -4.000300251064849 9.999610828153179 0  -3.000326725794934 10.00005811535731 0  -2.000260111467184 9.999981653153347 0  -1.000116073651964 9.999957106042999 0  -9.723822763189318e-06 9.999951093959027 0  1.00009599407957 9.999951477666896 0  2.000237163149316 9.999948351976654 0  3.00036084831129 10.00011111330549 0  4.000344492983725 9.999680473218271 0  5.000533366116414 9.99911211572098 0  6.000620562811344 9.999331194639659 0  7.000507241074593 9.999554117556803 0  8.000279681636769 9.99977727745107 0  9 10 0  -9 12 0  -8.000625097788991 11.99968599776423 0  -7.001217696887175 11.99935740103273 0  -6.001741047972518 11.99899676014027 0  -5.002149500535905 11.99857975584767 0  -4.002065670826963 11.99952789273209 0  -3.002141000648623 12.00046643339131 0  -2.001460290382715 12.00035434106712 0  -1.000704424452637 12.00029447673698 0  7.946335048762016e-05 12.0002843180397 0  1.000870174006153 12.00032596452789 0  2.001649542932308 12.00043108113885 0  3.002381504572595 12.00062871965831 0  4.002298614344458 11.9995932022872 0  5.002353891842677 11.99854895675392 0  6.001894385970236 11.99897653613035 0  7.001320167180054 11.99934456578581 0  8.000676444213923 11.99967966700419 0  9 12 0  -9 14 0  -8.001123539154197 13.9996539830095 0  -7.002249152020823 13.9992919905522 0  -6.003380405340819 13.99889663806986 0  -5.004524667392769 13.99844777513001 0  -4.004536643346142 13.99955526754283 0  -3.004543006380604 14.00067666740371 0  -2.002962789691483 14.00051845426392 0  -1.001405588685778 14.00043332386424 0  0.0001416101256363578 14.00041059947789 0  1.001691098882203 14.0004469164225 0  2.003254135529696 14.00054422133389 0  3.004839342703886 14.0007077598473 0  4.004850443615851 13.9995524882746 0  5.004858564771236 13.99840417046235 0  6.003624816176095 13.99886081200916 0  7.002409794078736 13.99926716824655 0  8.001203270359275 13.99964137108775 0  9 14 0  -9 16 0  -8.001612461626364 15.99968599171782 0  -7.003256027177702 15.99936027806337 0  -6.004964476392879 15.99901094634779 0  -5.006777029312824 15.99862585303429 0  -4.006842029904638 15.99956874403748 0  -3.006780334285288 16.00050653735912 0  -2.00437641869821 16.00039123269947 0  -1.00206812267415 16.00032335159485 0  0.000194691536955617 16.00030144511123 0  1.002459381681589 16.00032463734798 0  2.004773275963233 16.00039314940659 0  3.007186691483113 16.00050805925505 0  4.007254993144766 15.99952238949312 0  5.007195228989956 15.99853588473799 0  6.005276535117294 15.99894673619352 0  7.003463117807845 15.99931873893799 0  8.001715702252604 15.99966555814274 0  9 16 0  -9 18 0  -8.001975676484273 17.99976485416848 0  -7.004001053013461 17.9995231665388 0  -6.006128405644867 17.99926850993129 0  -5.008415128463238 17.99899470886247 0  -4.008513310368746 17.99957152223357 0  -3.00841827703836 18.00014748139342 0  -2.005411675919751 18.00007514436762 0  -1.002550633539815 18.00003033803076 0  0.0002402335426699048 18.00001274467773 0  1.003032654846433 18.00002191097953 0  2.0058982598176 18.00005728552653 0  3.008912090764431 18.00011807816875 0  4.009012430118315 17.99949995509478 0  5.008916888683249 17.99888350520433 0  6.006502785510577 17.99918838418671 0  7.004249689786903 17.99947124662575 0  8.002099708472191 17.99973932975235 0  9 18 0  -9 20 0  -8.002138895179858 19.99986986470994 0  -7.004335801564685 19.99973796441329 0  -6.006650944887812 19.99960272575479 0  -5.00914897902669 19.99946294974424 0  -4.00926105246041 19.99957122793066 0  -3.009149929861154 19.99967854110345 0  -2.005869354257759 19.99964954521252 0  -1.002754636542995 19.99962910334378 0  0.000279498981725778 19.9996176371492 0  1.003315248419659 19.99961496404223 0  2.00643478807274 19.99962031855014 0  3.009723348369447 19.99963229888399 0  4.009837028043551 19.99948888242957 0  5.009724949878117 19.99934656962568 0  6.007080505471129 19.99951819465274 0  7.004621027120962 19.99968291899592 0  8.002281164826144 19.99984273410908 0  8.999999999984142 19.99999999999385 0  -9 22 0  -8.002068958282649 21.99998191449887 0  -7.004195234021613 21.9999661142191 0  -6.006437951186752 21.99995510146733 0  -5.008859828215287 21.99995181782118 0  -4.00896957012513 21.99956646909062 0  -3.00886030384066 21.99918002532825 0  -2.005668340382639 21.99918993685471 0  -1.002638533933639 21.99919219240704 0  0.0003123252165258866 21.99918758483914 0  1.003264935785138 21.99917611856291 0  2.006300001590394 21.99915702444826 0  3.009500751365962 21.99912874512715 0  4.009610570453205 21.99948545940883 0  5.009498303510668 21.99984272844004 0  6.006914028692076 21.99987559465373 0  7.004511293688782 21.99991420356045 0  8.002226586905515 21.99995628728792 0  9 22 0  -9 24 0  -8.001768600346658 24.00008482737686 0  -7.003586466519519 24.0001751177799 0  -6.005504266804286 24.00027655890139 0  -5.007575372435566 24.00039530488983 0  -4.007669944322902 23.99955737939147 0  -3.007576679733367 23.99871843138347 0  -2.004823317381591 23.99876076995746 0  -1.002208767643481 23.998782562819 0  0.0003382683787434761 23.99878479550278 0  1.002887186296645 23.99876760073638 0  2.005507398366146 23.99873026225762 0  3.00827025654931 23.9986712088877 0  4.008362438104125 23.99948760668837 0  5.008263464432138 24.00030423989507 0  6.006017242777817 24.00020999137091 0  7.003926975681659 24.00013156327923 0  8.001938405775745 24.00006329768792 0  9 24 0  -9 26 0  -8.001269856548403 26.00016591502832 0  -7.002575362088499 26.00033953714155 0  -6.00395316322417 26.00052880292579 0  -5.005441689066145 26.0007421262081 0  -4.005511271222749 25.99954447309335 0  -3.005444679150223 25.9983459901261 0  -2.003427504159489 25.9984133662193 0  -1.001510967367234 25.99845075600252 0  0.0003568784400492233 25.99845929387632 0  1.002226690624811 25.99843922557758 0  2.004149145629258 25.99838990957676 0  3.006176250231007 25.99830981434897 0  4.006240562336957 25.99949340337804 0  5.006165207198059 26.00067699827721 0  6.004492530105921 26.00048109869568 0  7.002933379858304 26.00030827735294 0  8.00144839027625 26.00015044769508 0  9 26 0  -9 28 0  -8.000626974808505 28.00021620428199 0  -7.001272271254964 28.00044140312421 0  -6.001954781819847 28.00068482517956 0  -5.002694247816463 28.0009561753132 0  -4.002732092781667 27.99952891479744 0  -3.002699165275969 27.99810116067681 0  -2.001633516071227 27.99818546337198 0  -1.000620385709176 27.99823390739595 0  0.0003678180067765048 27.99824775980422 0  1.001358015575905 27.99822737466902 0  2.002377143867465 27.99817219365069 0  3.003452844942478 27.99808074437139 0  4.003482742669064 27.99950152889518 0  5.003438297901794 28.00092223294713 0  6.002509494660194 28.00065991482729 0  7.001640497188598 28.00042505551141 0 
[...]
<PointData  Vectors="f_44-2"> 
<DataArray  type="Float64"  Name="f_44-2"  NumberOfComponents="3" format="ascii">0.0000000000000000e+00 0.0000000000000000e+00 0.0000000000000000e+00  0.0000000000000000e+00 0.0000000000000000e+00 0.0000000000000000e+00  0.0000000000000000e+00 0.0000000000000000e+00 0.0000000000000000e+00  0.0000000000000000e+00 0.0000000000000000e+00 0.0000000000000000e+00  0.0000000000000000e+00 0.0000000000000000e+00 0.0000000000000000e+00  0.0000000000000000e+00 0.0000000000000000e+00 0.0000000000000000e+00  0.0000000000000000e+00 0.0000000000000000e+00 0.0000000000000000e+00  0.0000000000000000e+00 0.0000000000000000e+00 0.0000000000000000e+00  0.0000000000000000e+00 0.0000000000000000e+00 0.0000000000000000e+00  0.0000000000000000e+00 0.0000000000000000e+00 0.0000000000000000e+00  0.0000000000000000e+00 0.0000000000000000e+00 0.0000000000000000e+00  0.0000000000000000e+00 0.0000000000000000e+00 0.0000000000000000e+00  0.0000000000000000e+00 0.0000000000000000e+00 0.0000000000000000e+00  0.0000000000000000e+00 0.0000000000000000e+00 0.0000000000000000e+00  0.0000000000000000e+00 0.0000000000000000e+00 0.0000000000000000e+00  0.0000000000000000e+00 0.0000000000000000e+00 0.0000000000000000e+00  0.0000000000000000e+00 0.0000000000000000e+00 0.0000000000000000e+00  0.0000000000000000e+00 0.0000000000000000e+00 0.0000000000000000e+00  0.0000000000000000e+00 0.0000000000000000e+00 0.0000000000000000e+00  0.0000000000000000e+00 0.0000000000000000e+00 0.0000000000000000e+00  2.8443161692716079e-05 3.6651613411359954e-05 0.0000000000000000e+00  5.9530435035430064e-05 6.9335428587153912e-05 0.0000000000000000e+00  9.9063626510986777e-05 9.4900542643629768e-05 0.0000000000000000e+00  1.5996805480533626e-04 1.1217766388137137e-04 0.0000000000000000e+00  1.0145691329319617e-04 8.1882859985769866e-05 0.0000000000000000e+00  4.0613964622398511e-05 5.6195654697288929e-05 0.0000000000000000e+00  9.2899415784726330e-06 3.3377912609703664e-05 0.0000000000000000e+00  5.1569055034179338e-07 1.5322706796498709e-05 0.0000000000000000e+00  5.9589736164645883e-06 7.0084765685506633e-06 0.0000000000000000e+00  1.3031890225951779e-05 1.1246181546883191e-05 0.0000000000000000e+00  9.7684613987174222e-06 2.6576715061217070e-05 0.0000000000000000e+00  -1.1714512633920426e-05 4.5256113294658419e-05 0.0000000000000000e+00  -5.3391270086979655e-05 6.4379552599676645e-05 0.0000000000000000e+00  -1.1185042548226847e-04 6.9034630804462040e-05 0.0000000000000000e+00  -6.5595734965001143e-05 6.7058131025224979e-05 0.0000000000000000e+00  -3.8123917195573113e-05 5.2075072762305369e-05 0.0000000000000000e+00  -1.7959539011605032e-05 2.8281634071881594e-05 0.0000000000000000e+00  0.0000000000000000e+00 0.0000000000000000e+00 0.0000000000000000e+00  0.0000000000000000e+00 0.0000000000000000e+00 0.0000000000000000e+00  4.6308546674719407e-05 8.9169639412643031e-05 0.0000000000000000e+00  8.5277181342044059e-05 1.6714204981084401e-04 0.0000000000000000e+00  1.1264157552573225e-04 2.2295113410549671e-04 0.0000000000000000e+00  1.2924932715249079e-04 2.4612448723758249e-04 0.0000000000000000e+00  4.8334743764954954e-05 2.3159113612090479e-04 0.0000000000000000e+00  -7.3941831592835577e-06 1.6353112957176273e-04 0.0000000000000000e+00  -2.5582507293907849e-05 7.5805301173758143e-05 0.0000000000000000e+00  -1.1222103448265870e-05 5.3561496505625541e-06 0.0000000000000000e+00  2.1086140110183896e-05 -2.4205828521744954e-05 0.0000000000000000e+00  5.4630944956161561e-05 -5.6389583661858836e-06 0.0000000000000000e+00  7.3301227045181479e-05 4.8258454325232435e-05 0.0000000000000000e+00  6.1200939379719692e-05 1.2113091877870096e-04 0.0000000000000000e+00  1.3860694006665530e-05 1.9233619231267453e-04 0.0000000000000000e+00  -5.6769711199572133e-05 2.0943609679645531e-04 0.0000000000000000e+00  -5.6058907042070912e-05 1.8613988933757086e-04 0.0000000000000000e+00  -4.7017037171129409e-05 1.3938720231640520e-04 0.0000000000000000e+00  -2.7098040499581218e-05 7.4511362976388426e-05 0.0000000000000000e+00  0.0000000000000000e+00 0.0000000000000000e+00 0.0000000000000000e+00  0.0000000000000000e+00 0.0000000000000000e+00 0.0000000000000000e+00  9.3527583295134348e-05 1.8645412225395751e-04 0.0000000000000000e+00  1.5744049653111848e-04 3.5358141489786612e-04 0.0000000000000000e+00  1.6924700207311555e-04 4.8152530191790507e-04 0.0000000000000000e+00  1.2260265013447439e-04 5.5137916800549174e-04 0.0000000000000000e+00  -2.9156755760264459e-05 4.5079399716017453e-04 0.0000000000000000e+00  -9.9666228826898894e-05 2.4479440462763332e-04 0.0000000000000000e+00  -7.5735342820971500e-05 2.9978644370127853e-05 0.0000000000000000e+00  -1.2816990993420085e-05 -8.8788082954762313e-05 0.0000000000000000e+00  4.9659110120087921e-05 -1.1393865855402680e-04 0.0000000000000000e+00  1.0430065417515248e-04 -7.8915177588427104e-05 0.0000000000000000e+00  1.4461482263401640e-04 1.9758460618755164e-05 0.0000000000000000e+00  1.5835956361284160e-04 1.8647384080805479e-04 0.0000000000000000e+00  1.2333489571599669e-04 3.5741680444812096e-04 0.0000000000000000e+00  9.3085359904363234e-07 4.3641447853542991e-04 0.0000000000000000e+00  -7.9846211345813958e-05 3.9902967685723895e-04 0.0000000000000000e+00  -9.9413371639576689e-05 2.9917148088046374e-04 0.0000000000000000e+00  -6.4944782603751057e-05 1.5926373317112460e-04 0.0000000000000000e+00  0.0000000000000000e+00 0.0000000000000000e+00 0.0000000000000000e+00  0.0000000000000000e+00 0.0000000000000000e+00 0.0000000000000000e+00  2.5902532971032368e-04 3.6102335272035615e-04 0.0000000000000000e+00  4.3799171312662675e-04 6.9664556025641610e-04 0.0000000000000000e+00  4.5963668967008892e-04 9.7235336827776226e-04 0.0000000000000000e+00  2.5772112136278683e-04 1.1311372351744146e-03 0.0000000000000000e+00  -3.1639535329908657e-05 6.7576675718897770e-04 0.0000000000000000e+00  2.4349837446364781e-05 1.4374329519122842e-04 0.0000000000000000e+00  1.3385336464796487e-04 -1.1194668854878353e-04 0.0000000000000000e+00  1.4124338693042614e-04 -1.3701811171096235e-04 0.0000000000000000e+00  7.3253353781832902e-05 -1.4360278168307867e-04 0.0000000000000000e+00  1.9436009401680662e-05 -1.6870697212698020e-04 0.0000000000000000e+00  3.2326710464375924e-05 -7.0755781832637106e-05 0.0000000000000000e+00  1.4707400360112260e-04 9.7718476917237691e-05 0.0000000000000000e+00  1.8238776864499078e-04 5.2092694679089244e-04 0.0000000000000000e+00  -8.9740553788495778e-05 9.9939529449746475e-04 0.0000000000000000e+00  -3.4839884154778944e-04 8.6166933294695822e-04 0.0000000000000000e+00  -3.6786828757955038e-04 6.1904469568984646e-04 0.0000000000000000e+00  -2.2462439083884773e-04 3.2135767380879959e-04 0.0000000000000000e+00  0.0000000000000000e+00 0.0000000000000000e+00 0.0000000000000000e+00  0.0000000000000000e+00 0.0000000000000000e+00 0.0000000000000000e+00  7.4424723431860734e-04 6.3678518356456617e-04 0.0000000000000000e+00  1.3479813307770375e-03 1.2787330377366727e-03 0.0000000000000000e+00  1.6437563468433194e-03 1.9298296947271873e-03 0.0000000000000000e+00  1.3978569659815177e-03 2.5911014730040233e-03 0.0000000000000000e+00  9.4055500502726694e-04 1.1228475177536600e-03 0.0000000000000000e+00  1.0209311082212463e-03 -1.3543685925439573e-04 0.0000000000000000e+00  8.3239446372219712e-04 9.4283198402011649e-05 0.0000000000000000e+00  4.2517238869313527e-04 1.6814896718347254e-04 0.0000000000000000e+00  1.2837449446142404e-04 1.8608530954734702e-04 0.0000000000000000e+00  -1.6302025354185398e-04 1.8326278506480400e-04 0.0000000000000000e+00  -5.4467165104607192e-04 1.8548788855393436e-04 0.0000000000000000e+00  -8.9115128757359002e-04 -2.4671524367590026e-04 0.0000000000000000e+00  -8.5963459197544020e-04 8.6069734833220661e-04 0.0000000000000000e+00  -1.3447234105343822e-03 2.3246196727316590e-03 0.0000000000000000e+00  -1.5726623574263540e-03 1.7431028026935369e-03 0.0000000000000000e+00  -1.2865231225661635e-03 1.1587207051028646e-03 0.0000000000000000e+00  -7.0939937411053594e-04 5.7785124592699263e-04 0.0000000000000000e+00  0.0000000000000000e+00 0.0000000000000000e+00 0.0000000000000000e+00  0.0000000000000000e+00 0.0000000000000000e+00 0.0000000000000000e+00  1.7891549636474902e-03 8.9101767793362810e-04 0.0000000000000000e+00  3.4859512936506998e-03 1.8227441861392785e-03 0.0000000000000000e+00  4.9865410138697974e-03 2.8439952148268583e-03 0.0000000000000000e+00  6.1622657561951222e-03 4.0230214814456332e-03 0.0000000000000000e+00  5.9359027434530802e-03 1.3481661706061128e-03 0.0000000000000000e+00  6.1595467261527361e-03 -1.3004551918994484e-03 0.0000000000000000e+00  4.3413440920306353e-03 -9.5541693049475346e-04 0.0000000000000000e+00  2.3110895265047032e-03 -7.5796796747890647e-04 0.0000000000000000e+00  1.9595590649075577e-04 -6.9889820926888086e-04 0.0000000000000000e+00  -1.9517097020074268e-03 -7.8164327579334047e-04 0.0000000000000000e+00  -4.0919393677424651e-03 -1.0358105343650692e-03 0.0000000000000000e+00  -6.1433555032453088e-03 -1.5377169048621587e-03 0.0000000000000000e+00  -5.9392788736657674e-03 1.0937029899202848e-03 0.0000000000000000e+00  -6.0599489818727766e-03 3.7463338344504880e-03 0.0000000000000000e+00  -4.8481704139952779e-03 2.6341758082381495e-03 0.0000000000000000e+00  -3.3665820916102848e-03 1.6832257282183916e-03 0.0000000000000000e+00  -1.7217246856826903e-03 8.2157755069578399e-04 0.0000000000000000e+00  0.0000000000000000e+00 0.0000000000000000e+00 0.0000000000000000e+00  0.0000000000000000e+00 0.0000000000000000e+00 0.0000000000000000e+00  3.1986144105760812e-03 9.8142188252682994e-04 0.0000000000000000e+00  6.4009428228549966e-03 2.0069395341537222e-03 0.0000000000000000e+00  9.6154494788228909e-03 3.1245523778494454e-03 0.0000000000000000e+00  1.2861699079148201e-02 4.3899132704205181e-03 0.0000000000000000e+00  1.2904587007538326e-02 1.2638782685437421e-03 0.0000000000000000e+00  1.2935721217481926e-02 -1.9032941741901493e-03 0.0000000000000000e+00  8.7077105588918378e-03 -1.4166053668952985e-03 0.0000000000000000e+00  4.5407015551312321e-03 -1.1321891021718042e-03 0.0000000000000000e+00  3.9271278075460884e-04 -1.0180814039729674e-03 0.0000000000000000e+00  -3.7767778508315340e-03 -1.0626146068121699e-03 0.0000000000000000e+00  -8.0073612564837259e-03 -1.2686678494350143e-03 0.0000000000000000e+00  -1.2334425726934573e-02 -1.6480478100820164e-03 0.0000000000000000e+00  -1.2378025480656335e-02 1.2044139445749863e-03 0.0000000000000000e+00  -1.2372147554105805e-02 4.0363058664407096e-03 0.0000000000000000e+00  -9.1918164701984707e-03 2.8767918807585538e-03 0.0000000000000000e+00  -6.0932386333237814e-03 1.8483565522137643e-03 0.0000000000000000e+00  -3.0374820888368786e-03 9.0384306247458680e-04 0.0000000000000000e+00  0.0000000000000000e+00 0.0000000000000000e+00 0.0000000000000000e+00  0.0000000000000000e+00 0.0000000000000000e+00 0.0000000000000000e+00  4.5865579347266353e-03 8.9478333990363975e-04 0.0000000000000000e+00  9.2562712347996866e-03 1.8213604443693373e-03 0.0000000000000000e+00  1.4099786655537115e-02 2.8120253418987932e-03 0.0000000000000000e+00  1.9223249991387800e-02 3.8994658369121446e-03 0.0000000000000000e+00  1.9409390903281705e-02 1.2202576037777847e-03 0.0000000000000000e+00  1.9252043551436546e-02 -1.4465753906542358e-03 0.0000000000000000e+00  1.2847179185793738e-02 -1.0739608494645138e-03 0.0000000000000000e+00  6.7019032068252734e-03 -8.2939078153033258e-04 0.0000000000000000e+00  6.7554177396938477e-04 -7.0648084306088694e-04 0.0000000000000000e+00  -5.3648882673446507e-03 -7.0117831328104499e-04 0.0000000000000000e+00  -1.1552870627305338e-02 -8.1187728535632984e-04 0.0000000000000000e+00  -1.8031125826109985e-02 -1.0387563452561152e-03 0.0000000000000000e+00  -1.8220860354773397e-02 1.2838243290173854e-03 0.0000000000000000e+00  -1.8042689723432457e-02 3.6062199680370233e-03 0.0000000000000000e+00  -1.3189813360447738e-02 2.5926884970596041e-03 0.0000000000000000e+00  -8.6373485751972973e-03 1.6761160978719539e-03 0.0000000000000000e+00  -4.2733965384990106e-03 8.2254591458472387e-04 0.0000000000000000e+00  0.0000000000000000e+00 0.0000000000000000e+00 0.0000000000000000e+00  0.0000000000000000e+00 0.0000000000000000e+00 0.0000000000000000e+00  5.6353968606133314e-03 6.8071631491585451e-04 0.0000000000000000e+00  1.1403528869447482e-02 1.3788334780357831e-03 0.0000000000000000e+00  1.7444226140279760e-02 2.1113021302915907e-03 0.0000000000000000e+00  2.3911121771728338e-02 2.8941782280196907e-03 0.0000000000000000e+00  2.4183529650639017e-02 1.2045285135104257e-03 0.0000000000000000e+00  2.3936338726775488e-02 -4.8501679496631495e-04 0.0000000000000000e+00  1.5969780496533890e-02 -2.2906923620813214e-04 0.0000000000000000e+00  8.3977499492140974e-03 -4.4313215154946513e-05 0.0000000000000000e+00  1.0153572464641069e-03 7.1247308137881209e-05 0.0000000000000000e+00  -6.3714892560496460e-03 1.2007864959658652e-04 0.0000000000000000e+00  -1.3956740470921256e-02 1.0565640202841645e-04 0.0000000000000000e+00  -2.1944017063339830e-02 3.2659644716857694e-05 0.0000000000000000e+00  -2.2209830024134371e-02 1.3386060265264817e-03 0.0000000000000000e+00  -2.1947665116968204e-02 2.6379822844857957e-03 0.0000000000000000e+00  -1.5965170718214253e-02 1.9192325246991555e-03 0.0000000000000000e+00  -1.0414215319526892e-02 1.2509505443188123e-03 0.0000000000000000e+00  -5.1395932965531237e-03 6.1683175195605003e-04 0.0000000000000000e+00  0.0000000000000000e+00 0.0000000000000000e+00 0.0000000000000000e+00  0.0000000000000000e+00 0.0000000000000000e+00 0.0000000000000000e+00  6.1468167671552719e-03 3.9716615936801614e-04 0.0000000000000000e+00  1.2447756298470064e-02 7.9875630351013149e-04 0.0000000000000000e+00  1.9062737484754309e-02 1.2085654301250350e-03 0.0000000000000000e+00  2.6163197279727227e-02 1.6292134856631564e-03 0.0000000000000000e+00  2.6469602041297786e-02 1.1944509225123672e-03 0.0000000000000000e+00  2.6180383350816891e-02 7.6042674079225211e-04 0.0000000000000000e+00  1.7539108060908928e-02 8.9816173960110461e-04 0.0000000000000000e+00  9.3455854201574193e-03 1.0157866801109808e-03 0.0000000000000000e+00  1.3737280583832373e-03 1.1129868811535824e-03 0.0000000000000000e+00  -6.5941706256731044e-03 1.1914347850796024e-03 0.0000000000000000e+00  -1.4775435955929860e-02 1.2547993448674944e-03 0.0000000000000000e+00  -2.3395193124245640e-02 1.3088831122423394e-03 0.0000000000000000e+00  -2.3686353592435493e-02 1.3608257842229747e-03 0.0000000000000000e+00  -2.3391584859581916e-02 1.4083201707949934e-03 0.0000000000000000e+00  -1.6992888874789704e-02 1.0435293809014613e-03 0.0000000000000000e+00  -1.1071904670051503e-02 6.8896448018782811e-04 0.0000000000000000e+00  -5.4600588766230349e-03 3.4234465799949529e-04 0.0000000000000000e+00  4.6898232168336648e-10 0.0000000000000000e+00 0.0000000000000000e+00  0.0000000000000000e+00 0.0000000000000000e+00 0.0000000000000000e+00  6.0358113123654836e-03 9.6066383744551284e-05 0.0000000000000000e+00  1.2223220301040266e-02 1.8587262703172609e-04 0.0000000000000000e+00  1.8718300734546080e-02 2.6251358766009509e-04 0.0000000000000000e+00  2.5686196028682006e-02 3.1780048258818320e-04 0.0000000000000000e+00  2.5984994851996301e-02 1.1955680121536480e-03 0.0000000000000000e+00  2.5702531690873141e-02 2.0749082008760071e-03 0.0000000000000000e+00  1.7341721391659438e-02 2.1048873085356538e-03 0.0000000000000000e+00  9.4185728361525674e-03 2.1565968944161173e-03 0.0000000000000000e+00  1.7164731872155205e-03 2.2287020525009306e-03 0.0000000000000000e+00  -5.9744431850284573e-03 2.3221939055556311e-03 0.0000000000000000e+00  -1.3863693949537664e-02 2.4403527272923412e-03 0.0000000000000000e+00  -2.2166854617728968e-02 2.5887892246512965e-03 0.0000000000000000e+00  -2.2438355359398914e-02 1.3635483057065031e-03 0.0000000000000000e+00  -2.2151655854978025e-02 1.3591388858640014e-04 0.0000000000000000e+00  -1.6089302270937012e-02 1.2667199326723207e-04 0.0000000000000000e+00  -1.0480750641946167e-02 9.5578493867792296e-05 0.0000000000000000e+00  -5.1675897927833756e-03 5.0994597014944188e-05 0.0000000000000000e+00  0.0000000000000000e+00 0.0000000000000000e+00 0.0000000000000000e+00  0.0000000000000000e+00 0.0000000000000000e+00 0.0000000000000000e+00  5.3124079077362229e-03 -1.7996377553589399e-04 0.0000000000000000e+00  1.0755267318106427e-02 -3.7428691870051306e-04 0.0000000000000000e+00  1.6461450109390905e-02 -5.9798678175926909e-04 0.0000000000000000e+00  2.2571971900701579e-02 -8.6727519718392254e-04 0.0000000000000000e+00  2.2831743621840886e-02 1.2096699202918694e-03 0.0000000000000000e+00  2.2593149143265007e-02 3.2883360764671132e-03 0.0000000000000000e+00  1.5417018344952573e-02 3.2256657407033879e-03 0.0000000000000000e+00  8.6181641532347281e-03 3.2167544378248923e-03 0.0000000000000000e+00  2.0140216769336007e-03 3.2598191607629591e-03 0.0000000000000000e+00  -4.5731532476878910e-03 3.3553171603400997e-03 0.0000000000000000e+00  -1.1320734342718790e-02 3.5059877636105297e-03 0.0000000000000000e+00  -1.8410446783145729e-02 3.7168791747059244e-03 0.0000000000000000e+00  -1.8627989206062848e-02 1.3552628033821235e-03 0.0000000000000000e+00  -1.8381254729887529e-02 -1.0075702425649511e-03 0.0000000000000000e+00  -1.3350745314548645e-02 -7.0257178058994710e-04 0.0000000000000000e+00  -8.6963313751292244e-03 -4.4374047708666377e-04 0.0000000000000000e+00  -4.2875392349165037e-03 -2.1460391851612433e-04 0.0000000000000000e+00  0.0000000000000000e+00 0.0000000000000000e+00 0.0000000000000000e+00  0.0000000000000000e+00 0.0000000000000000e+00 0.0000000000000000e+00  4.0618229766109714e-03 -3.9864271788385126e-04 0.0000000000000000e+00  8.2186008887402649e-03 -8.1716550401607802e-04 0.0000000000000000e+00  1.2567762591403749e-02 -1.2760247872522191e-03 0.0000000000000000e+00  1.7211168017825674e-02 -1.7968972034275634e-03 0.0000000000000000e+00  1.7408400442046671e-02 1.2369379146282820e-03 0.0000000000000000e+00  1.7240421757489265e-02 4.2720559159498657e-03 0.0000000000000000e+00  1.2004437176599407e-02 4.1332572661440256e-03 0.0000000000000000e+00  7.0490397209591665e-03 4.0711094951831860e-03 0.0000000000000000e+00  2.2427790604120359e-03 4.0833457835458718e-03 0.0000000000000000e+00  -2.5422925773682954e-03 4.1699677488868572e-03 0.0000000000000000e+00  -7.4337414080119244e-03 4.3330781974695040e-03 0.0000000000000000e+00  -1.2561914385572500e-02 4.5771054584644449e-03 0.0000000000000000e+00  -1.2701820304538498e-02 1.3426368004223253e-03 0.0000000000000000e+00  -1.2518508892318002e-02 -1.8924854540544843e-03 0.0000000000000000e+00  -9.0881283440115996e-03 -1.3471719277389777e-03 0.0000000000000000e+00  -5.9174719748511942e-03 -8.6434956682775546e-04 0.0000000000000000e+00  -2.9167869460451096e-03 -4.2216041381062567e-04 0.0000000000000000e+00  0.0000000000000000e+00 0.0000000000000000e+00 0.0000000000000000e+00  0.0000000000000000e+00 0.0000000000000000e+00 0.0000000000000000e+00  2.4236761013460974e-03 -5.3790777211599528e-04 0.0000000000000000e+00  4.8982128356437520e-03 -1.0987169888688874e-03 0.0000000000000000e+00  7.4760795707440640e-03 -1.7058879590716293e-03 0.0000000000000000e+00  1.0211511987446985e-02 -2.3840357473226591e-03 0.0000000000000000e+00  1.0329874917755878e-02 1.2745826287034075e-03 0.0000000000000000e+00  1.0248931128211623e-02 4.9333836750927659e-03 0.0000000000000000e+00  7.4912506167364532e-03 4.7364312557354694e-03 0.0000000000000000e+00  4.8931906243112932e-03 4.6301438884328730e-03 0.0000000000000000e+00  2.3858384048383407e-03 4.6117813863650638e-03 0.0000000000000000e+00  -9.7707281694888923e-05 4.6807939232902281e-03 0.0000000000000000e+00  -2.6239470285112903e-03 4.8388055334847675e-03 0.0000000000000000e+00  -5.2605640516612713e-03 5.0896298885641589e-03 0.0000000000000000e+00  -5.3094611956553059e-03 1.3289016865340687e-03 0.0000000000000000e+00  -5.2057807902171592e-03 -2.4326282252623422e-03 0.0000000000000000e+00  -3.7661839354701417e-03 -1.7420023099932753e-03 0.000000000