<?xml version="1.0"?>
<VTKFile type="UnstructuredGrid"  version="0.1"  >
<UnstructuredGrid>
<Piece  NumberOfPoints="589" NumberOfCells="1080">
<Points>
<DataArray  type="Float64"  NumberOfComponents="3"  format="ascii">-9 0 0  -8 0 0  -7 0 0  -6 0 0  -5 0 0  -4 0 0  -3 0 0  -2 0 0  -1 0 0  0 0 0  1 0 0  2 0 0  3 0 0  4 0 0  5 0 0  6 0 0  7 0 0  8 0 0  9 0 0  -9 2 0  -8.000003312881297 1.999995329196762 0  -7.000006959147119 1.99999119932545 0  -6.00001168174919 1.999988045609034 0  -5.000019145244832 1.999986046029167 0  -4.000011747888877 1.999989677059054 0  -3.000004069187355 1.999992933121838 0  -2.000000200593417 1.999995908337824 0  -0.9999992971017401 1.999998256350921 0  -2.467763048165179e-07 1.999999293916709 0  0.999998655124307 1.999998614587435 0  1.999999056576812 1.999996391092732 0  3.000002067603437 1.999993653766566 0  4.000008032886121 1.999990717966314 0  5.000016578184694 1.999989525621451 0  6.000009978173369 1.999990026335458 0  7.00000590725384 1.999992332946875 0  8.000002809522373 1.99999585693903 0  9 2 0  -9 4 0  -8.000005292191743 3.999988494785773 0  -7.000009612948425 3.999978494122109 0  -6.000012399902004 3.99997147472071 0  -5.000013779883383 3.999968851319877 0  -4.000003232037136 3.999970493008543 0  -2.999996028468162 3.999979384125272 0  -1.999993859272547 3.999990936413421 0  -0.9999960599233361 4.000000212301805 0  -6.549614121908674e-07 4.00000398126729 0  0.9999946323752035 4.000001158453845 0  1.999992034129866 3.999993420024101 0  2.999993773242482 3.999982934022603 0  4.000000505096992 3.99997243326554 0  5.000010560643647 3.999969029072116 0  6.000009839940055 3.999972829154398 0  7.000007921720487 3.999979796492636 0  8.000004466158533 3.999989237729623 0  9 4 0  -9 6 0  -8.000011157097953 5.999975642733964 0  -7.000018401956842 5.999953864383897 0  -6.000018745965152 5.999937320314064 0  -5.000011327949442 5.9999285627304 0  -3.999991121075053 5.999941648309886 0  -2.999981756336512 5.999968919740732 0  -1.999984988425903 5.999997490076286 0  -0.9999935481795635 6.000013389030914 0  -2.204076690244442e-06 6.000016642456646 0  0.9999900768316522 6.00001157012153 0  1.999984303891474 5.999997503966516 0  2.999982344207489 5.99997377783624 0  3.999987306077384 5.999949229375354 0  5.000004417955862 5.999937222498575 0  6.000014491775978 5.999942963409518 0  7.000016085419504 5.999957364976234 0  8.000010164970483 5.999977334896977 0  9 6 0  -9 8 0  -8.000032669201898 7.999952477555756 0  -7.000054793436862 7.999908300241947 0  -6.00005613963909 7.999872022623955 0  -5.000027912135818 7.999851168451227 0  -3.999989219666328 7.999911271318408 0  -2.999996022204819 7.999981900546871 0  -2.000010206529448 8.000016370397267 0  -1.000011195997405 8.00002037431419 0  -2.376336089973481e-06 8.000021532852513 0  1.00000434294943 8.000024889030334 0  2.000002039421104 8.00001066828521 0  2.999985851418578 7.999986361694754 0  3.999980758383143 7.999926478213958 0  5.000018580272405 7.99985902075222 0  6.000053062450739 7.999878458697522 0  7.00005430334396 7.999912662843399 0  8.000032840019895 7.999954653461424 0  9 8 0  -9 10 0  -8.000096348560335 9.999915942054319 0  -7.000174283732058 9.999831152793961 0  -6.000211815320765 9.999745057101782 0  -5.000178302857658 9.999657440998382 0  -4.000117171711036 9.99985090158135 0  -3.000126601334775 10.00001740278646 0  -2.000101403578377 9.999989077217492 0  -1.000047553118518 9.999979993902466 0  -7.829896447300075e-06 9.999977790172025 0  1.000031514044655 9.999977938861829 0  2.000083596011267 9.999976850298301 0  3.00012988226558 10.00003552246172 0  4.000124981801791 9.999879458538606 0  5.000193583915657 9.999673908799942 0  6.000224571859011 9.9997549095729 0  7.000183321506165 9.999836826243294 0  8.000101010945627 9.999918555610972 0  9 10 0  -9 12 0  -8.000233623343249 11.99988235343341 0  -7.000455293645597 11.99975926746865 0  -6.000651485093548 11.99962423645581 0  -5.000805455189883 11.99946818334608 0  -4.00077422567674 11.99982012123872 0  -3.000801913229542 12.00016862455292 0  -2.000552614297435 12.00012623032168 0  -1.000275519757821 12.00010306213733 0  1.218200945258361e-05 12.00009811857769 0  1.000302961208124 12.00011208740155 0  2.000590558809824 12.00014915769992 0  3.000862459462858 12.00021985866628 0  4.000833772557309 11.99984726177289 0  5.000853398598411 11.99947170682087 0  6.000684905619615 11.99962774343848 0  7.000476515927441 11.99976176754827 0  8.000243943775473 11.99988361549111 0  9 12 0  -9 14 0  -8.00041859066444 13.99987054672492 0  -7.00083802779941 13.99973520437239 0  -6.001259713668813 13.99958756549372 0  -5.001686543064931 13.99942020960392 0  -4.001690726958201 13.99983079177955 0  -3.001692723474359 14.00024662133024 0  -2.001115232240828 14.00018652427707 0  -1.000546015368257 14.0001532714199 0  1.990914518137455e-05 14.00014283353802 0  1.0005873048224 14.00015387410503 0  2.001160634870435 14.00018700597336 0  3.001743505572244 14.00024405123543 0  4.001749035865261 13.99983259056139 0  5.001751504199098 13.99942375749756 0  6.001304543253449 13.99958871989733 0  7.000866274518677 13.99973546877628 0  8.000432259777275 13.99987055933011 0  9 14 0  -9 16 0  -8.000600009256665 15.99988231237459 0  -7.00121149918707 15.9997603613228 0  -6.001846937454223 15.99962981350804 0  -5.00252084921078 15.99948627392133 0  -4.002544494028752 15.99983610806198 0  -3.002521599982917 16.00018405058251 0  -2.001645171427141 16.00013957123213 0  -1.000803526630494 16.00011232508335 0  2.175559358768133e-05 16.00010172861137 0  1.000848101196274 16.00010738770053 0  2.001692952854268 16.00012929256647 0  3.002574874075576 16.00016772962081 0  4.002600787672529 15.99982180094413 0  5.002578802068989 15.99947558331904 0  6.001888936161548 15.99962261207061 0  7.001238729005321 15.99975584657929 0  8.000613384074489 15.99988012544904 0  9 16 0  -9 18 0  -8.000735331755715 17.9999111357302 0  -7.001488872346732 17.99981992151979 0  -6.002279775363647 17.99972405506989 0  -5.003129093964063 17.99962134708705 0  -4.003164858882976 17.99983710507224 0  -3.003130069114029 18.00005256717654 0  -2.002036508188239 18.0000237895776 0  -1.000995838461868 18.00000488916627 0  1.933627343157465e-05 17.99999570922938 0  1.001035095753097 17.99999602340604 0  2.00207748452625 18.00000555089779 0  3.003173775343648 18.00002390417184 0  4.003210675477203 17.99981354014434 0  5.003175994945464 17.99960379652162 0  6.002314154002789 17.99971171986399 0  7.001511395761021 17.99981207069271 0  8.000746471609917 17.99990731731201 0  9 18 0  -9 20 0  -8.00079766074588 19.99994935586038 0  -7.001616483542744 19.99989809416067 0  -6.00247843753909 19.9998456710444 0  -5.003407109310181 19.99979169174652 0  -4.003447867709014 19.99983671131607 0  -3.003407452108165 19.99988144239948 0  -2.002216877754044 19.99986857557483 0  -1.001086454911488 19.99985865152604 0  1.456420028698707e-05 19.99985179207878 0  1.001115827232039 19.99984788173812 0  2.002246964275283 19.99984657594853 0  3.003438674212842 19.99984728147079 0  4.003479811268837 19.99980912258004 0  5.003439526940646 19.9997714108351 0  6.002502488959408 19.99983112765799 0  7.001632386896454 19.99988871624236 0  8.000805571740086 19.99994476191664 0  8.999999999994733 20.00000000000132 0  -9 22 0  -8.00077519625105 21.99999004277862 0  -7.001571261119988 21.99998091107513 0  -6.002409712259936 21.9999735112815 0  -5.003313364332359 21.99996891296094 0  -4.003353158820412 21.99983466724641 0  -3.00331350096535 21.99970014157244 0  -2.002157243381975 21.99970161475994 0  -1.001059741055426 21.99970018223717 0  8.814426918681946e-06 21.9996961052066 0  1.001077342562408 21.99968934624036 0  2.002174748113233 21.99967957505471 0  3.003330795782989 21.99966616321565 0  4.003370137269833 21.99980737552439 0  5.003330203341875 21.99994888617895 0  6.002422552149073 21.99995904580578 0  7.001579913097984 21.99997152985867 0  8.000779547870767 21.99998543070592 0  9 22 0  -9 24 0  -8.00066910936536 24.00002742724816 0  -7.001356180064946 24.00005679952719 0  -6.002079661792814 24.00009014350247 0  -5.002858976658586 24.00012965075058 0  -4.002893152055757 23.9998313058404 0  -3.002859191440761 23.99953274385845 0  -2.001863169972438 23.99954625223868 0  -1.000917508760297 23.99955226776646 0  3.187356661257739e-06 23.99955112255498 0  1.000923645080727 23.99954283424553 0  2.001868577383461 23.99952710768277 0  3.002863338721109 23.99950333289798 0  4.002896156286382 23.99980778953886 0  5.00286141154754 24.00011246583736 0  6.002082060376855 24.00007766253329 0  7.001358043208011 24.00004867337983 0  8.000670118316645 24.00002342258854 0  9 24 0  -9 26 0  -8.000491012780804 26.00005703420359 0  -7.000995119773627 26.00011680290017 0  -6.001525749121569 26.00018212166355 0  -5.002096971308905 26.00025597030001 0  -4.002122039738199 25.99982699136 0  -3.002097491242344 25.99939786604201 0  -2.001368213897285 25.99942080736625 0  -1.000675669647543 25.9994329429456 0  -1.46246517085553e-06 25.99943465819338 0  1.000672352416096 25.99942601951231 0  2.001363705908205 25.99940677467423 0  3.002090951986153 25.99937635183729 0  4.002113767665519 25.99980984524651 0  5.00208782274934 26.00024348172584 0  6.001519729779096 26.00017302291705 0  7.000991499573846 26.00011086478824 0  8.000489318124826 26.00005410347655 0  9 26 0  -9 28 0  -8.000260346464813 28.00007570637156 0  -7.000527616772441 28.00015460766272 0  -6.000808911820239 28.00023997963853 0  -5.00111165088489 28.0003352606772 0  -4.001125287872798 27.99982214927937 0  -3.001112625918525 27.99930897921608 0  -2.000726872476609 27.99933853012671 0  -1.000360730097635 27.99935524320912 0  -4.519169857931758e-06 27.99935955239649 0  1.000351203983874 27.99935157101189 0  2.000715868204094 27.99933109193541 0  3.001099108880458 27.99929758740692 0  4.001109684725606 27.9998130969297 0  5.00109499203219 28.00032869267265 0  6.000797429169587 28.00023518496887 0  7.000520435053927 28.00015147380154 0  8.000256895512745
[...]
<PointData  Vectors="f_44-2"> 
<DataArray  type="Float64"  Name="f_44-2"  NumberOfComponents="3" format="ascii">0.0000000000000000e+00 0.0000000000000000e+00 0.0000000000000000e+00  0.0000000000000000e+00 0.0000000000000000e+00 0.0000000000000000e+00  0.0000000000000000e+00 0.0000000000000000e+00 0.0000000000000000e+00  0.0000000000000000e+00 0.0000000000000000e+00 0.0000000000000000e+00  0.0000000000000000e+00 0.0000000000000000e+00 0.0000000000000000e+00  0.0000000000000000e+00 0.0000000000000000e+00 0.0000000000000000e+00  0.0000000000000000e+00 0.0000000000000000e+00 0.0000000000000000e+00  0.0000000000000000e+00 0.0000000000000000e+00 0.0000000000000000e+00  0.0000000000000000e+00 0.0000000000000000e+00 0.0000000000000000e+00  0.0000000000000000e+00 0.0000000000000000e+00 0.0000000000000000e+00  0.0000000000000000e+00 0.0000000000000000e+00 0.0000000000000000e+00  0.0000000000000000e+00 0.0000000000000000e+00 0.0000000000000000e+00  0.0000000000000000e+00 0.0000000000000000e+00 0.0000000000000000e+00  0.0000000000000000e+00 0.0000000000000000e+00 0.0000000000000000e+00  0.0000000000000000e+00 0.0000000000000000e+00 0.0000000000000000e+00  0.0000000000000000e+00 0.0000000000000000e+00 0.0000000000000000e+00  0.0000000000000000e+00 0.0000000000000000e+00 0.0000000000000000e+00  0.0000000000000000e+00 0.0000000000000000e+00 0.0000000000000000e+00  0.0000000000000000e+00 0.0000000000000000e+00 0.0000000000000000e+00  0.0000000000000000e+00 0.0000000000000000e+00 0.0000000000000000e+00  -3.9712097932895316e-05 -6.6761247104297724e-05 0.0000000000000000e+00  -8.2550732748389472e-05 -1.2425173880930705e-04 0.0000000000000000e+00  -1.3752089329444584e-04 -1.6481449050851892e-04 0.0000000000000000e+00  -2.2658918674140562e-04 -1.8466757462862155e-04 0.0000000000000000e+00  -1.2291633755973566e-04 -1.4059866744767644e-04 0.0000000000000000e+00  -1.9040884168864768e-05 -9.3379859594411454e-05 0.0000000000000000e+00  2.7875291926510123e-05 -4.6666419279383101e-05 0.0000000000000000e+00  2.7978464597451506e-05 -9.5024646329246996e-06 0.0000000000000000e+00  -1.3126200626674349e-06 7.0507896167263180e-06 0.0000000000000000e+00  -3.2864844034835075e-05 -3.9391709491536627e-06 0.0000000000000000e+00  -4.0312401510726444e-05 -3.9547433241833995e-05 0.0000000000000000e+00  -6.3385421090233338e-06 -8.2412782099617501e-05 0.0000000000000000e+00  7.3636416733982159e-05 -1.2627126844372649e-04 0.0000000000000000e+00  1.9140868035077730e-04 -1.3869778157248736e-04 0.0000000000000000e+00  1.1404251389384698e-04 -1.3818890802547328e-04 0.0000000000000000e+00  6.8012611818529879e-05 -1.0870115343940002e-04 0.0000000000000000e+00  3.2749856284652004e-05 -5.9416799611773396e-05 0.0000000000000000e+00  0.0000000000000000e+00 0.0000000000000000e+00 0.0000000000000000e+00  0.0000000000000000e+00 0.0000000000000000e+00 0.0000000000000000e+00  -6.6917230888962229e-05 -1.7060191490926601e-04 0.0000000000000000e+00  -1.1657559634716298e-04 -3.1621176719039959e-04 0.0000000000000000e+00  -1.3864902719792164e-04 -4.1246620655941351e-04 0.0000000000000000e+00  -1.3477595965214866e-04 -4.3641940681447990e-04 0.0000000000000000e+00  2.2103209477601611e-05 -4.1220678334231975e-04 0.0000000000000000e+00  1.2329931792632101e-04 -2.7049203646292567e-04 0.0000000000000000e+00  1.4105142466493904e-04 -8.6199429198204516e-05 0.0000000000000000e+00  8.6425469007183459e-05 6.2866365684972230e-05 0.0000000000000000e+00  -7.1753679509301726e-06 1.2335481734536963e-04 0.0000000000000000e+00  -1.0255091426684664e-04 7.7210844093609653e-05 0.0000000000000000e+00  -1.6341176515165444e-04 -4.7687869075571178e-05 0.0000000000000000e+00  -1.5335130934749996e-04 -2.1598546141986789e-04 0.0000000000000000e+00  -6.0726290748637515e-05 -3.8386637532002822e-04 0.0000000000000000e+00  8.9781468306362615e-05 -4.3450994297504860e-04 0.0000000000000000e+00  1.0273964757315013e-04 -3.9229110862443005e-04 0.0000000000000000e+00  9.2955955167726767e-05 -2.9658502906531909e-04 0.0000000000000000e+00  5.5446802310422489e-05 -1.5935954966724201e-04 0.0000000000000000e+00  0.0000000000000000e+00 0.0000000000000000e+00 0.0000000000000000e+00  0.0000000000000000e+00 0.0000000000000000e+00 0.0000000000000000e+00  -1.6315308574603647e-04 -3.7439284503508566e-04 0.0000000000000000e+00  -2.6093967610841173e-04 -7.0557676022739186e-04 0.0000000000000000e+00  -2.4356295590353372e-04 -9.4930670039778092e-04 0.0000000000000000e+00  -9.7056040532702331e-05 -1.0635994037815535e-03 0.0000000000000000e+00  2.1946345236633497e-04 -8.4906736551016977e-04 0.0000000000000000e+00  3.5755065346983997e-04 -4.0383775511999929e-04 0.0000000000000000e+00  2.8691986548763198e-04 6.2472148546684333e-05 0.0000000000000000e+00  1.2876391955156310e-04 3.2079055126199953e-04 0.0000000000000000e+00  -3.0517742762379793e-05 3.7219406631832600e-04 0.0000000000000000e+00  -1.7471194347974407e-04 2.8984324881130990e-04 0.0000000000000000e+00  -2.8763578026539142e-04 6.0810801276177349e-05 0.0000000000000000e+00  -3.3692805009410493e-04 -3.2723985106392057e-04 0.0000000000000000e+00  -2.7093133759835625e-04 -7.2888826810112780e-04 0.0000000000000000e+00  -4.4846707499924186e-06 -9.2647714360137535e-04 0.0000000000000000e+00  1.8240366517629922e-04 -8.6032700056184607e-04 0.0000000000000000e+00  2.2879621705164331e-04 -6.5052917761088244e-04 0.0000000000000000e+00  1.4988736751377500e-04 -3.4782225336384430e-04 0.0000000000000000e+00  0.0000000000000000e+00 0.0000000000000000e+00 0.0000000000000000e+00  0.0000000000000000e+00 0.0000000000000000e+00 0.0000000000000000e+00  -5.2101199424728383e-04 -7.5093579103415538e-04 0.0000000000000000e+00  -8.6592454274228309e-04 -1.4446676073973897e-03 0.0000000000000000e+00  -8.6497559020876514e-04 -2.0038072557936660e-03 0.0000000000000000e+00  -3.7529359318633503e-04 -2.3016345369827568e-03 0.0000000000000000e+00  2.5242653261348574e-04 -1.3117917489383444e-03 0.0000000000000000e+00  1.2143628732413476e-04 -1.4940092562250526e-04 0.0000000000000000e+00  -1.2990016644066373e-04 4.1325528981474605e-04 0.0000000000000000e+00  -1.6199588714849519e-04 4.7170343821999270e-04 0.0000000000000000e+00  -3.0305430114523833e-05 4.8821788088408431e-04 0.0000000000000000e+00  6.5617762702768311e-05 5.4693704492120212e-04 0.0000000000000000e+00  1.3753256912015364e-05 3.1495498798939835e-04 0.0000000000000000e+00  -2.7128425019519627e-04 -7.6930676031167688e-05 0.0000000000000000e+00  -3.7854952574031353e-04 -1.0634986720839191e-03 0.0000000000000000e+00  2.2945681092926970e-04 -2.1796239944928144e-03 0.0000000000000000e+00  8.2398700392715156e-04 -1.9028306549664043e-03 0.0000000000000000e+00  8.6576864738795254e-04 -1.3760162614242365e-03 0.0000000000000000e+00  5.2817966259310369e-04 -7.1667614418002401e-04 0.0000000000000000e+00  0.0000000000000000e+00 0.0000000000000000e+00 0.0000000000000000e+00  0.0000000000000000e+00 0.0000000000000000e+00 0.0000000000000000e+00  -1.5828413214286565e-03 -1.3559512099709623e-03 0.0000000000000000e+00  -2.8536372848189180e-03 -2.7214185318888795e-03 0.0000000000000000e+00  -3.4408879149576783e-03 -4.1026792296814506e-03 0.0000000000000000e+00  -2.8289281372609640e-03 -5.4983399007937890e-03 0.0000000000000000e+00  -1.8206823154162516e-03 -2.2718139122413447e-03 0.0000000000000000e+00  -2.0131329184202265e-03 4.9805743310758733e-04 0.0000000000000000e+00  -1.6288782436651068e-03 1.0969529717909064e-06 0.0000000000000000e+00  -7.5579447915296650e-04 -1.5834116192604860e-04 0.0000000000000000e+00  -1.1909519786131591e-04 -1.9736695255031717e-04 0.0000000000000000e+00  5.1129401406268887e-04 -1.9275247026533218e-04 0.0000000000000000e+00  1.3558886956999026e-03 -2.0433228177098956e-04 0.0000000000000000e+00  2.0873895860717339e-03 8.0345080879369341e-04 0.0000000000000000e+00  1.9729858810420518e-03 -1.7941407089506847e-03 0.0000000000000000e+00  3.1123283867845425e-03 -5.2317649457112713e-03 0.0000000000000000e+00  3.6756601797304370e-03 -3.9447236865264249e-03 0.0000000000000000e+00  3.0196547878545174e-03 -2.6312195031338282e-03 0.0000000000000000e+00  1.6684644763999598e-03 -1.3146302030880728e-03 0.0000000000000000e+00  0.0000000000000000e+00 0.0000000000000000e+00 0.0000000000000000e+00  0.0000000000000000e+00 0.0000000000000000e+00 0.0000000000000000e+00  -3.8908605088149089e-03 -1.9221634508216395e-03 0.0000000000000000e+00  -7.5722786882939158e-03 -3.9337475537333261e-03 0.0000000000000000e+00  -1.0807380374353279e-02 -6.1416694264684324e-03 0.0000000000000000e+00  -1.3302142075901718e-02 -8.6950560256710916e-03 0.0000000000000000e+00  -1.2773408816069884e-02 -2.7589268398568452e-03 0.0000000000000000e+00  -1.3261983472622628e-02 3.1188545382456689e-03 0.0000000000000000e+00  -9.1597701254579871e-03 2.4039006025931738e-03 0.0000000000000000e+00  -4.5597369209027733e-03 2.0127734970792439e-03 0.0000000000000000e+00  2.3168222957023073e-04 1.9305377095871863e-03 0.0000000000000000e+00  5.0735626742150668e-03 2.1692961858475815e-03 0.0000000000000000e+00  9.8460925433558454e-03 2.7989665169388814e-03 0.0000000000000000e+00  1.4320159156835077e-02 3.9945108433329171e-03 0.0000000000000000e+00  1.3805504129639426e-02 -2.2985654177271643e-03 0.0000000000000000e+00  1.4141828130892342e-02 -8.6444654047318943e-03 0.0000000000000000e+00  1.1400235648629124e-02 -6.0908701137046975e-03 0.0000000000000000e+00  7.9520590080742037e-03 -3.8977834833443638e-03 0.0000000000000000e+00  4.0764918733324079e-03 -1.9041420784475088e-03 0.0000000000000000e+00  0.0000000000000000e+00 0.0000000000000000e+00 0.0000000000000000e+00  0.0000000000000000e+00 0.0000000000000000e+00 0.0000000000000000e+00  -7.0325196413875942e-03 -2.1298526522033974e-03 0.0000000000000000e+00  -1.4069571790839062e-02 -4.3592702940138369e-03 0.0000000000000000e+00  -2.1123913412814777e-02 -6.7966739534601073e-03 0.0000000000000000e+00  -2.8230269183618706e-02 -9.5679315957663408e-03 0.0000000000000000e+00  -2.8293486070400782e-02 -2.5614643203236572e-03 0.0000000000000000e+00  -2.8358299003526828e-02 4.5320861112622679e-03 0.0000000000000000e+00  -1.8689710267424404e-02 3.5129293693831861e-03 0.0000000000000000e+00  -9.1326681815385828e-03 2.9496812548219448e-03 0.0000000000000000e+00  3.8150463617062297e-04 2.7757078399261608e-03 0.0000000000000000e+00  9.9191601229824157e-03 2.9692140103677223e-03 0.0000000000000000e+00  1.9541475533624467e-02 3.5409461829620007e-03 0.0000000000000000e+00  2.9293581115902086e-02 4.5219072768840135e-03 0.0000000000000000e+00  2.9354308412703780e-02 -2.5240339737467206e-03 0.0000000000000000e+00  2.9403817871697227e-02 -9.5273884652318924e-03 0.0000000000000000e+00  2.1941388056530314e-02 -6.7917924601251069e-03 0.0000000000000000e+00  1.4588323949100044e-02 -4.3646610269199070e-03 0.0000000000000000e+00  7.2846659366543019e-03 -2.1346145904030788e-03 0.0000000000000000e+00  0.0000000000000000e+00 0.0000000000000000e+00 0.0000000000000000e+00  0.0000000000000000e+00 0.0000000000000000e+00 0.0000000000000000e+00  -1.0150392697710717e-02 -1.9387173577965426e-03 0.0000000000000000e+00  -2.0488391556024138e-02 -3.9516568014981842e-03 0.0000000000000000e+00  -3.1217396464041140e-02 -6.1144703438343103e-03 0.0000000000000000e+00  -4.2574027408844771e-02 -8.5047263151119198e-03 0.0000000000000000e+00  -4.2971940798605675e-02 -2.4498121421745529e-03 0.0000000000000000e+00  -4.2607483355774724e-02 3.5742215331656568e-03 0.0000000000000000e+00  -2.7788026057594107e-02 2.8028388144866996e-03 0.0000000000000000e+00  -1.3540546104481282e-02 2.3331251013390215e-03 0.0000000000000000e+00  4.3756115715264018e-04 2.1542371155587213e-03 0.0000000000000000e+00  1.4432787045785007e-02 2.2594518705215155e-03 0.0000000000000000e+00  2.8731847070579030e-02 2.6492205384389305e-03 0.0000000000000000e+00  4.3639606714702919e-02 3.3297484978906597e-03 0.0000000000000000e+00  4.4054979713302703e-02 -2.6889556116336650e-03 0.0000000000000000e+00  4.3686353170477338e-02 -8.7124058175914506e-03 0.0000000000000000e+00  3.2028538854223673e-02 -6.2566737516283472e-03 0.0000000000000000e+00  2.1016954414647966e-02 -4.0416735024730015e-03 0.0000000000000000e+00  1.0410925528498236e-02 -1.9825581829603666e-03 0.0000000000000000e+00  0.0000000000000000e+00 0.0000000000000000e+00 0.0000000000000000e+00  0.0000000000000000e+00 0.0000000000000000e+00 0.0000000000000000e+00  -1.2512406634987504e-02 -1.4505408423568244e-03 0.0000000000000000e+00  -2.5332316200691811e-02 -2.9436914929192246e-03 0.0000000000000000e+00  -3.8783151544618630e-02 -4.5215310927563448e-03 0.0000000000000000e+00  -5.3220189085792839e-02 -6.2249015026874443e-03 0.0000000000000000e+00  -5.3832881394370230e-02 -2.4084061749984433e-03 0.0000000000000000e+00  -5.3251885266804973e-02 1.4031254278698542e-03 0.0000000000000000e+00  -3.4616986531172088e-02 8.9014396853121305e-04 0.0000000000000000e+00  -1.6879720980843067e-02 5.5713844958443543e-04 0.0000000000000000e+00  4.2472607148512993e-04 4.0017751446394257e-04 0.0000000000000000e+00  1.7738894244343283e-02 4.1520854192963580e-04 0.0000000000000000e+00  3.5504639772445466e-02 5.9803070083988270e-04 0.0000000000000000e+00  5.4184772749216153e-02 9.4353608216153151e-04 0.0000000000000000e+00  5.4802634704090851e-02 -2.8127202256134289e-03 0.0000000000000000e+00  5.4209618151948712e-02 -6.5584974511290273e-03 0.0000000000000000e+00  3.9511830948523147e-02 -4.7572197029833270e-03 0.0000000000000000e+00  2.5811484903844533e-02 -3.0942813885348592e-03 0.0000000000000000e+00  1.2749999394525688e-02 -1.5239578758791958e-03 0.0000000000000000e+00  0.0000000000000000e+00 0.0000000000000000e+00 0.0000000000000000e+00  0.0000000000000000e+00 0.0000000000000000e+00 0.0000000000000000e+00  -1.3638845157136530e-02 -7.9201160833876263e-04 0.0000000000000000e+00  -2.7641538820514174e-02 -1.5968158216039254e-03 0.0000000000000000e+00  -4.2385991949543275e-02 -2.4261395339360901e-03 0.0000000000000000e+00  -5.8278292983039548e-02 -3.2895922545086989e-03 0.0000000000000000e+00  -5.8985578479929787e-02 -2.3908188396112996e-03 0.0000000000000000e+00  -5.8294217744385778e-02 -1.4974857241839949e-03 0.0000000000000000e+00  -3.7876333420790394e-02 -1.7396652602185440e-03 0.0000000000000000e+00  -1.8498036563035662e-02 -1.9205038112227299e-03 0.0000000000000000e+00  3.7251800744833667e-04 -2.0389982620024130e-03 0.0000000000000000e+00  1.9247668734572489e-02 -2.0974428220672066e-03 0.0000000000000000e+00  3.8639487744657107e-02 -2.1013353399060106e-03 0.0000000000000000e+00  5.9079048020657859e-02 -2.0597015101708332e-03 0.0000000000000000e+00  5.9784218194895808e-02 -2.8717905034613533e-03 0.0000000000000000e+00  5.9085395349229498e-02 -3.6764439863413698e-03 0.0000000000000000e+00  4.2985822639033520e-02 -2.7039972360013357e-03 0.0000000000000000e+00  2.8038702876937986e-02 -1.7762303727790411e-03 0.0000000000000000e+00  1.3836598363645744e-02 -8.7997829125942566e-04 0.0000000000000000e+00  -1.0013351697489070e-09 -1.1163538661877171e-09 0.0000000000000000e+00  0.0000000000000000e+00 0.0000000000000000e+00 0.0000000000000000e+00  -1.3304736134719407e-02 -8.2412256736818623e-05 0.0000000000000000e+00  -2.6972763929856300e-02 -1.5187721471655166e-04 0.0000000000000000e+00  -4.1379103878453935e-02 -1.9419717557781540e-04 0.0000000000000000e+00  -5.6922055191927466e-02 -1.9241206904622806e-04 0.0000000000000000e+00  -5.7620058639080783e-02 -2.4048769086985008e-03 0.0000000000000000e+00  -5.6931008144388423e-02 -4.6233073489972453e-03 0.0000000000000000e+00  -3.6998761483428136e-02 -4.6138765033860805e-03 0.0000000000000000e+00  -1.8095445345346808e-02 -4.6464840549415151e-03 0.0000000000000000e+00  3.0184418618874764e-04 -4.7173402585116890e-03 0.0000000000000000e+00  1.8699710462239096e-02 -4.8273477976193135e-03 0.0000000000000000e+00  3.7604543600474639e-02 -4.9820205639397172e-03 0.0000000000000000e+00  5.7538608401658246e-02 -5.1915840994073755e-03 0.0000000000000000e+00  5.8223696547172778e-02 -2.8865453973714304e-03 0.0000000000000000e+00  5.7522697006592162e-02 -5.7698645458044819e-04 0.0000000000000000e+00  4.1831021356692449e-02 -4.7209632596943366e-04 0.0000000000000000e+00  2.7274644565519594e-02 -3.3221312804324543e-04 0.0000000000000000e+00  1.3455811762211655e-02 -1.7109692117637230e-04 0.0000000000000000e+00  0.0000000000000000e+00 0.0000000000000000e+00 0.0000000000000000e+00  0.0000000000000000e+00 0.0000000000000000e+00 0.0000000000000000e+00  -1.1512161945302255e-02 5.7540695290125940e-04 0.0000000000000000e+00  -2.3339529108629565e-02 1.1844835396474351e-03 0.0000000000000000e+00  -3.5807123844716883e-02 1.8612922989231372e-03 0.0000000000000000e+00  -4.9256429593951080e-02 2.6446172641133819e-03 0.0000000000000000e+00  -4.9861136893029581e-02 -2.4484869594235165e-03 0.0000000000000000e+00  -4.9265003952275344e-02 -7.5469054147091607e-03 0.0000000000000000e+00  -3.2026281990643030e-02 -7.3207326380031667e-03 0.0000000000000000e+00  -1.5678360557124169e-02 -7.2202282033020952e-03 0.0000000000000000e+00  2.2933198061341164e-04 -7.2398484294742497e-03 0.0000000000000000e+00  1.6134483180739869e-02 -7.3794261375996120e-03 0.0000000000000000e+00  3.2474610657222999e-02 -7.6441004824366427e-03 0.0000000000000000e+00  4.9699478677443162e-02 -8.0443691387671549e-03 0.0000000000000000e+00  5.0277143356203556e-02 -2.8675405824428145e-03 0.0000000000000000e+00  4.9660976194262345e-02 2.3121229877429510e-03 0.0000000000000000e+00  3.6117192255129514e-02 1.6197368030827007e-03 0.0000000000000000e+00  2.3549618933182741e-02 1.0267945405429098e-03 0.0000000000000000e+00  1.1618037906615879e-02 4.9776906536935599e-04 0.0000000000000000e+00  0.0000000000000000e+00 0.0000000000000000e+00 0.0000000000000000e+00  0.0000000000000000e+00 0.0000000000000000e+00 0.0000000000000000e+00  -8.4520938670242830e-03 1.0986590148742757e-03 0.0000000000000000e+00  -1.7135052502451328e-02 2.2456421168292376e-03 0.0000000000000000e+00  -2.6286266431565241e-02 3.4907108764408020e-03 0.0000000000000000e+00  -3.6155183053826145e-02 4.8870701058996973e-03 0.0000000000000000e+00  -3.6601514835130744e-02 -2.5175026871951346e-03 0.0000000000000000e+00  -3.6168139088054961e-02 -9.9261772744841659e-03 0.0000000000000000e+00  -2.3511781943036138e-02 -9.5269611796788556e-03 0.0000000000000000e+00  -1.1509445747200571e-02 -9.3153466069421410e-03 0.0000000000000000e+00  1.6783425622398499e-04 -9.2844291709351968e-03 0.0000000000000000e+00  1.1840216406692576e-02 -9.4330772099156922e-03 0.0000000000000000e+00  2.3827789312198675e-02 -9.7658557782367358e-03 0.0000000000000000e+00  3.6458879842053003e-02 -1.0293006543665292e-02 0.0000000000000000e+00  3.6863236788005120e-02 -2.8252648692166883e-03 0.0000000000000000e+00  3.6399232724596997e-02 4.6439047912005850e-03 0.0000000000000000e+00  2.6480416180685428e-02 3.3138269686155512e-03 0.0000000000000000e+00  1.7269630071817279e-02 2.1302016625132079e-03 0.0000000000000000e+00  8.5208652863710960e-03 1.0416900802857191e-03 0.0000000000000000e+00  0.0000000000000000e+00 0.0000000000000000e+00 0.0000000000000000e+00  0.0000000000000000e+00 0.0000000000000000e+00 0.0000000000000000e+00  -4.4615624815083441e-03 1.4287419922991115e-03 0.0000000000000000e+00  -9.0447903500614109e-03 2.9145315617303837e-03 0.0000000000000000e+00  -1.3874989773382225e-02 4.5159628863194953e-03 0.0000000000000000e+00  -1.9083385010493108e-02 6.2947847766902159e-03 0.0000000000000000e+00  -1.9326516014393565e-02 -2.6045514705063380e-03 0.0000000000000000e+00  -1.9102888595723375e-02 -1.1506076509806422e-02 0.0000000000000000e+00  -1.2400672335157497e-02 -1.0984687704863175e-02 0.0000000000000000e+00  -6.0490126678316540e-03 -1.0689657409537394e-02 0.0000000000000000e+00  1.2666716289955925e-04 -1.0612956968828104e-02 0.0000000000000000e+00  6.2960847599691817e-03 -1.0752451590061548e-02 0.0000000000000000e+00  1.2628734534309306e-02 -1.1112004340191375e-02 0.0000000000000000e+00  1.9298295963552887e-02 -1.1701497101477587e-02 0.0000000000000000e+00  1.9486515438331492e-02 -2.7679239919725291e-03 0.0000000000000000e+00