<?xml version="1.0"?>
<VTKFile type="UnstructuredGrid"  version="0.1"  >
<UnstructuredGrid>
<Piece  NumberOfPoints="589" NumberOfCells="1080">
<Points>
<DataArray  type="Float64"  NumberOfComponents="3"  format="ascii">-9 0 0  -8 0 0  -7 0 0  -6 0 0  -5 0 0  -4 0 0  -3 0 0  -2 0 0  -1 0 0  0 0 0  1 0 0  2 0 0  3 0 0  4 0 0  5 0 0  6 0 0  7 0 0  8 0 0  9 0 0  -9 2 0  -8.000003727541491 1.999993941908645 0  -7.000007874793675 1.999988649113632 0  -6.000013405917778 1.999984745698344 0  -5.000022504519832 1.999982511732164 0  -4.000013023338783 1.999986823679254 0  -3.000003220827751 1.999991028174025 0  -1.999998456181925 1.999995018141073 0  -0.9999977085017491 1.999998155849245 0  5.565942673150431e-07 1.999999469483064 0  0.9999987310140078 1.999998345598584 0  1.999999170518133 1.999994986178335 0  3.000003499734061 1.999990811857127 0  4.000012325674176 1.999986140456026 0  5.000025262693247 1.999983575508517 0  6.000015568938914 1.999984637031345 0  7.000009371325342 1.999988298743936 0  8.000004495857244 1.999993706047544 0  9 2 0  -9.000000000004983 4 0  -8.00000577620305 3.999984822846745 0  -7.000010214122544 3.999971740865547 0  -6.000012541897991 3.999962813686479 0  -5.000012953405908 3.999960019164696 0  -3.999998886650582 3.999961810905239 0  -2.999989410492512 3.999973769878171 0  -1.999986923230536 3.99998945226792 0  -0.9999905067641258 4.000002042131062 0  2.612794447130334e-06 4.000006951471408 0  0.9999956464738574 4.000002489842508 0  1.999991804036436 3.999990925360958 0  2.999994321798924 3.99997521997461 0  4.00000420469638 3.999959095253984 0  5.000019037825552 3.999952564381328 0  6.000017153213517 3.999958873502586 0  7.000013453962667 3.999969615425225 0  8.000007473133987 3.999983865805984 0  9 4 0  -9 6 0  -8.000013177735172 5.999967324185 0  -7.00002099402371 5.999938214422804 0  -6.000019342933204 5.999916352037206 0  -5.000007014245614 5.999905304735144 0  -3.999979291667893 5.999922854545272 0  -2.999966548672011 5.999960161403544 0  -1.999971187859034 5.999999423403954 0  -0.9999833431714535 6.000021392493948 0  4.15677366506472e-06 6.000025667952722 0  0.999992781007866 6.000018034473447 0  1.99998412117978 5.999997207799588 0  2.999981109357307 5.999962075276768 0  3.999988292405697 5.999925356927267 0  5.000013072934915 5.999906365317551 0  6.000025996058491 5.999915379808962 0  7.000026662561968 5.999936899501581 0  8.000016419104703 5.999966491494078 0  9 6 0  -9 8 0  -8.00004202183716 7.999935566076642 0  -7.000069641515822 7.999875703962521 0  -6.000068853118583 7.999826635559265 0  -5.000027535586429 7.99979863359529 0  -3.999974159596805 7.999880758133694 0  -2.999982797574565 7.999977652197169 0  -2.000001838399253 8.00002554059407 0  -1.000003135510675 8.000031841179357 0  8.80666865092912e-06 8.00003380102374 0  1.000017493398107 8.000038592578866 0  2.000013384399201 8.000017278035495 0  2.999989415724696 7.999981056665903 0  3.999981457590486 7.999892866863111 0  5.00003599015207 7.999793586247795 0  6.00008386133163 7.999821873403848 0  7.000083506151605 7.99987190067709 0  8.000050063396476 7.999933455962939 0  9 8 0  -9 10 0  -8.000128449415996 9.999885541129764 0  -7.00023189467527 9.999770050302937 0  -6.000280453010432 9.999652705615912 0  -5.000232436964023 9.999533173920117 0  -4.000148368828018 9.999796907993387 0  -3.000159923272183 10.0000243793841 0  -2.000124814047593 9.999987942708371 0  -1.000050892285589 9.99997627440567 0  4.343208546497775e-06 9.999973419217326 0  1.000059607605283 9.999973364527579 0  2.000133727668403 9.999970877117789 0  3.000198232857678 10.00005489664395 0  4.000189745820196 9.999825866782841 0  5.000290322447647 9.999524410918252 0  6.000334573237285 9.999641452576496 0  7.000272662466701 9.999760815759863 0  8.000150165334059 9.999880482021245 0  9 10 0  -9 12 0  -8.00031477796621 11.99983968707718 0  -7.000613506303115 11.99967188461346 0  -6.0008779843824 11.99948764937417 0  -5.001085586382211 11.99927453718508 0  -4.00104249031452 11.99975287726661 0  -3.001078670752676 12.00022626814141 0  -2.000721326928398 12.00017249922323 0  -1.000327234811706 12.00014509867509 0  7.991544991666593e-05 12.00014290832201 0  1.000489257181693 12.00016720287164 0  2.000891092636769 12.00022421556517 0  3.001265959681582 12.00032925769556 0  4.001222332879182 11.99977897535326 0  5.001253375051584 11.99922403486216 0  6.001009637332441 11.9994518532817 0  7.000704016153845 11.99964858474111 0  8.000360848839955 11.99982814237854 0  9 12 0  -9 14 0  -8.00056506807196 13.99982383939999 0  -7.001131739199186 13.99963953347652 0  -6.001702369824102 13.9994382228014 0  -5.002281307918254 13.9992096501597 0  -4.002286893282957 13.99976505913396 0  -3.002287752226383 14.00032733846279 0  -2.001465282223209 14.00025167196329 0  -1.000655989524702 14.00021316187463 0  0.0001468147685288809 14.00020653378221 0  1.00094933605459 14.00023026666647 0  2.001757066493981 14.00028557908956 0  3.002573919359362 14.00037539897421 0  4.002579465796215 13.99975700279897 0  5.002585972844906 13.99914207922999 0  6.001931585613346 13.99938681557412 0  7.001285172035025 13.99960517755868 0  8.000642018681967 13.99980667368792 0  9 14 0  -9 16 0  -8.000808624820126 15.99984060467379 0  -7.001633603752767 15.99967526885446 0  -6.002492669558066 15.9994979460216 0  -5.0034063499902 15.99930247945855 0  -4.003439037014833 15.99977025165001 0  -3.003405539866977 16.00023522688239 0  -2.00215737891253 16.00018248822418 0  -1.000959144400777 16.0001539157724 0  0.0002148985273290358 16.00014891555005 0  1.001389033449961 16.00016721244144 0  2.002587472020892 16.00020911521472 0  3.003835889577267 16.00027539382388 0  4.003871396095983 15.99974051703425 0  5.003842027830818 15.99920497413867 0  6.002820535299436 15.99942742449944 0  7.001852614003164 15.99962933843674 0  8.000918245170046 15.99981793999607 0  9 16 0  -9 18 0  -8.000986374749273 17.99988114007609 0  -7.001998521510337 17.99975898570422 0  -6.003063531342058 17.99963029880643 0  -5.004211121597801 17.99949197463485 0  -4.00426082079108 17.99976986687417 0  -3.004210651527242 18.00004711125654 0  -2.0026508677279 18.0000168637395 0  -1.001166032016479 18.00000061618005 0  0.0002826304221666777 17.99999834320288 0  1.0017320426348 18.00000996591783 0  2.003219077468174 18.00003537191257 0  3.00478235086483 18.00007434358031 0  4.004834792745908 17.99972778924938 0  5.004786150984304 17.99938189858982 0  6.00349392883042 17.99955027704962 0  7.002285042209182 17.9997068096934 0  8.001129512763269 17.99985539579087 0  9 18 0  -9 20 0  -8.001060724970047 19.99993484817553 0  -7.002151365069491 19.99986884162757 0  -6.00330297764607 19.99980122149325 0  -5.004548909336732 19.99973142124968 0  -4.004605691399751 19.99976777675844 0  -3.004547645806743 19.99980346764781 0  -2.002845824591766 19.99979540789781 0  -1.001228813275113 19.99979159346302 0  0.0003473688354464292 19.99979236357446 0  1.001925153177586 19.99979775770593 0  2.003546985377147 19.99980752692547 0  3.005256898014755 19.99982110719328 0  4.005316664770405 19.99972083063427 0  5.005258751759851 19.99962096845757 0  6.003832664542021 19.99972054234651 0  7.002503225463619 19.99981608098725 0  8.001236279984282 19.99990877472899 0  8.999999999970049 19.99999999999815 0  -9 22 0  -8.001015123208473 21.99999197032751 0  -7.002059694651213 21.99998515278348 0  -6.003164098028305 21.99998086953636 0  -5.004360581078331 21.99998066535575 0  -4.004416016508818 21.99976348825437 0  -3.004359181842981 21.9995456340187 0  -2.002702835750556 21.99955702736148 0  -1.001128875987832 21.999564295453 0  0.0004057183993545614 21.99956795199149 0  1.001942713571997 21.99956811004203 0  2.003523911756339 21.99956449011419 0  3.005192445029421 21.99955641304957 0  4.005250691217174 21.99971795723665 0  5.005192129579125 21.99987968797156 0  6.003783542060395 21.99990694403851 0  7.002470668294016 21.99993672519155 0  8.001220015982547 21.99996801285306 0  9 22 0  -9 24 0  -8.00085142175516 24.00004424632694 0  -7.001728048344817 24.00009133026846 0  -6.002655819418007 24.00014420474067 0  -5.003662057478906 24.00020605815155 0  -4.003709441564816 23.99975732705784 0  -3.003660985891848 23.99930799342579 0  -2.002231572491507 23.99933509578551 0  -1.000872058279274 23.99935139578884 0  0.0004545071884011573 23.99935748732893 0  1.001784132887548 23.9993535251029 0  2.003152874463862 23.99933922699969 0  3.00459782493113 23.99931387122453 0  4.00464741886571 23.99971837447629 0  5.00459537916582 24.00012293657282 0  6.003350359032678 24.00008323333632 0  7.002188505572406 24.00005133364899 0  8.001080878720833 24.00002444322614 0  9 24 0  -9 26 0  -8.000586528054281 26.00008518068175 0  -7.001191160691707 26.000174353953 0  -6.001832502426577 26.0002716310807 0  -5.002530096206256 26.00038136561556 0  -4.002564320854986 25.99974973228229 0  -3.002529696191822 25.99911760117959 0  -2.001481943910504 25.9991562558236 0  -1.000484004350144 25.99917921255947 0  0.0004911118394502623 25.99918712035114 0  1.001469767825842 25.99918016472604 0  2.002478378654991 25.99915807205791 0  3.003544087200511 25.99912010687553 0  4.003579636072979 25.9997212683508 0  5.003539630177011 26.00032237252973 0  6.002583328721136 26.00022830172518 0  7.001688722462736 26.00014590276082 0  8.00083441426702 26.00007108536593 0  9 26 0  -9 28 0  -8.000248794702351 28.0001101543757 0  -7.000506672591894 28.00022497163675 0  -6.000782985715293 28.00034923605104 0  -5.001087543825933 28.00048797670057 0  -4.001105153366423 27.99974132525073 0  -3.001087998152862 27.99899432211566 0  -2.000534283397975 27.99904007945954 0  -1.000005207942493 27.99906710118288 0  0.0005136102856494948 27.99907607772872 0  1.00103625037062 27.99906722303717 0  2.001576843293063 27.99904027579626 0  3.002149928261182 27.99899449867255 0  4.002167850794875 27.99972596906029 0  5.00214376821381 28.00045730628864 0  6.001568321493017 28.00032668357934 0  7.001027000064422 28.00021015052527 0  8.00050799285385
[...]
<PointData  Vectors="f_44-2"> 
<DataArray  type="Float64"  Name="f_44-2"  NumberOfComponents="3" format="ascii">0.0000000000000000e+00 0.0000000000000000e+00 0.0000000000000000e+00  0.0000000000000000e+00 0.0000000000000000e+00 0.0000000000000000e+00  0.0000000000000000e+00 0.0000000000000000e+00 0.0000000000000000e+00  0.0000000000000000e+00 0.0000000000000000e+00 0.0000000000000000e+00  0.0000000000000000e+00 0.0000000000000000e+00 0.0000000000000000e+00  0.0000000000000000e+00 0.0000000000000000e+00 0.0000000000000000e+00  0.0000000000000000e+00 0.0000000000000000e+00 0.0000000000000000e+00  0.0000000000000000e+00 0.0000000000000000e+00 0.0000000000000000e+00  0.0000000000000000e+00 0.0000000000000000e+00 0.0000000000000000e+00  0.0000000000000000e+00 0.0000000000000000e+00 0.0000000000000000e+00  0.0000000000000000e+00 0.0000000000000000e+00 0.0000000000000000e+00  0.0000000000000000e+00 0.0000000000000000e+00 0.0000000000000000e+00  0.0000000000000000e+00 0.0000000000000000e+00 0.0000000000000000e+00  0.0000000000000000e+00 0.0000000000000000e+00 0.0000000000000000e+00  0.0000000000000000e+00 0.0000000000000000e+00 0.0000000000000000e+00  0.0000000000000000e+00 0.0000000000000000e+00 0.0000000000000000e+00  0.0000000000000000e+00 0.0000000000000000e+00 0.0000000000000000e+00  0.0000000000000000e+00 0.0000000000000000e+00 0.0000000000000000e+00  0.0000000000000000e+00 0.0000000000000000e+00 0.0000000000000000e+00  0.0000000000000000e+00 0.0000000000000000e+00 0.0000000000000000e+00  7.0223760178403130e-05 1.0780964310163717e-04 0.0000000000000000e+00  1.4659095952953221e-04 2.0172685454923647e-04 0.0000000000000000e+00  2.4472617276138323e-04 2.7039637310091654e-04 0.0000000000000000e+00  4.0133577377948575e-04 3.0858407089351538e-04 0.0000000000000000e+00  2.3242442609082913e-04 2.3216307902113097e-04 0.0000000000000000e+00  6.0414309897041664e-05 1.5645266219740109e-04 0.0000000000000000e+00  -2.1429554054534102e-05 8.3961201470264630e-05 0.0000000000000000e+00  -3.0810122482536888e-05 2.6415623783601660e-05 0.0000000000000000e+00  5.2873330058142116e-06 7.2063261176652390e-07 0.0000000000000000e+00  4.5125434865040481e-05 1.7218579420535870e-05 0.0000000000000000e+00  4.8314580867702386e-05 7.1427322409091875e-05 0.0000000000000000e+00  -1.1830916532703285e-05 1.3707941210008062e-04 0.0000000000000000e+00  -1.4257554837781723e-04 2.0495138509050474e-04 0.0000000000000000e+00  -3.3223578667315664e-04 2.2560373797599032e-04 0.0000000000000000e+00  -1.9811106053803235e-04 2.2140344712800848e-04 0.0000000000000000e+00  -1.1746464688720324e-04 1.7285231101159333e-04 0.0000000000000000e+00  -5.6182810535206368e-05 9.4130965759971053e-05 0.0000000000000000e+00  0.0000000000000000e+00 0.0000000000000000e+00 0.0000000000000000e+00  0.0000000000000000e+00 0.0000000000000000e+00 0.0000000000000000e+00  1.1587226289905625e-04 2.7118156778553544e-04 0.0000000000000000e+00  2.0611049180997040e-04 5.0443899045143827e-04 0.0000000000000000e+00  2.5555412115668127e-04 6.6271701089963477e-04 0.0000000000000000e+00  2.6690940811497260e-04 7.1090859115266242e-04 0.0000000000000000e+00  1.8173474691968699e-05 6.7253655468456569e-04 0.0000000000000000e+00  -1.4619919320466807e-04 4.5415784870099366e-04 0.0000000000000000e+00  -1.8397917032215942e-04 1.7014491299962502e-04 0.0000000000000000e+00  -1.1196335148533302e-04 -5.9058836505006426e-05 0.0000000000000000e+00  1.9566027628642567e-05 -1.5247870675088503e-04 0.0000000000000000e+00  1.5402500142559862e-04 -8.3080864859332504e-05 0.0000000000000000e+00  2.3621205041495671e-04 1.0668841062758243e-04 0.0000000000000000e+00  2.1091317659543431e-04 3.6274900609093472e-04 0.0000000000000000e+00  6.1074338050168009e-05 6.1762368112939397e-04 0.0000000000000000e+00  -1.7440968432137609e-04 6.9338717169578092e-04 0.0000000000000000e+00  -1.8230719940146660e-04 6.2020478563646004e-04 0.0000000000000000e+00  -1.5746876492113684e-04 4.6637670903936255e-04 0.0000000000000000e+00  -9.1966035601020741e-05 2.4989137940883234e-04 0.0000000000000000e+00  0.0000000000000000e+00 0.0000000000000000e+00 0.0000000000000000e+00  0.0000000000000000e+00 0.0000000000000000e+00 0.0000000000000000e+00  2.6404762372439440e-04 5.8621245974994896e-04 0.0000000000000000e+00  4.2880767677803055e-04 1.1070337252572008e-03 0.0000000000000000e+00  4.1873477120905737e-04 1.4953492200551906e-03 0.0000000000000000e+00  2.1249249039680213e-04 1.6872831013646855e-03 0.0000000000000000e+00  -2.7846500337565440e-04 1.3599761266335142e-03 0.0000000000000000e+00  -4.9755534618960509e-04 6.7980942538887503e-04 0.0000000000000000e+00  -3.9948500535501254e-04 -3.2364795914940329e-05 0.0000000000000000e+00  -1.6870043200907682e-04 -4.2686716297440848e-04 0.0000000000000000e+00  6.3266562256828756e-05 -5.0621281843499146e-04 0.0000000000000000e+00  2.7164593512015307e-04 -3.8146171104975893e-04 0.0000000000000000e+00  4.3220853825063526e-04 -3.4502180411252841e-05 0.0000000000000000e+00  4.9752231464261776e-04 5.5275296278050993e-04 0.0000000000000000e+00  3.8956167488831143e-04 1.1597603306502100e-03 0.0000000000000000e+00  -2.2042099239453261e-05 1.4553404203095875e-03 0.0000000000000000e+00  -2.9744656838485712e-04 1.3415551937950940e-03 0.0000000000000000e+00  -3.6011901193641415e-04 1.0104912347143043e-03 0.0000000000000000e+00  -2.3358636877843873e-04 5.3923899113947522e-04 0.0000000000000000e+00  0.0000000000000000e+00 0.0000000000000000e+00 0.0000000000000000e+00  0.0000000000000000e+00 0.0000000000000000e+00 0.0000000000000000e+00  8.0916787583015500e-04 1.1627876076354515e-03 0.0000000000000000e+00  1.3507688312871555e-03 2.2394620293878500e-03 0.0000000000000000e+00  1.3665507958317358e-03 3.1133192698991575e-03 0.0000000000000000e+00  6.3738313052941415e-04 3.5925089939853570e-03 0.0000000000000000e+00  -3.2306743167357760e-04 2.0829905960583128e-03 0.0000000000000000e+00  -1.3033873846406024e-04 3.1182375012270757e-04 0.0000000000000000e+00  2.4458627523555644e-04 -5.4461434513242938e-04 0.0000000000000000e+00  2.8390104117646537e-04 -6.3340251763269336e-04 0.0000000000000000e+00  7.3531751930901913e-05 -6.5824156725580087e-04 0.0000000000000000e+00  -8.3618304941986292e-05 -7.4655020618825789e-04 0.0000000000000000e+00  -1.4754410231136158e-05 -3.9701155024029339e-04 0.0000000000000000e+00  4.0715193705998789e-04 1.9656077801221230e-04 0.0000000000000000e+00  5.5751904345244338e-04 1.6873643015215482e-03 0.0000000000000000e+00  -3.7170197763739470e-04 3.3735475345348714e-03 0.0000000000000000e+00  -1.2633755857618643e-03 2.9317522867701872e-03 0.0000000000000000e+00  -1.3194289486982054e-03 2.1151529546908211e-03 0.0000000000000000e+00  -8.0328316042760383e-04 1.1003776350665679e-03 0.0000000000000000e+00  0.0000000000000000e+00 0.0000000000000000e+00 0.0000000000000000e+00  0.0000000000000000e+00 0.0000000000000000e+00 0.0000000000000000e+00  2.4236681032123817e-03 2.0831001344601280e-03 0.0000000000000000e+00  4.3754810361228934e-03 4.1820394114553449e-03 0.0000000000000000e+00  5.2932454500473781e-03 6.3081267292873994e-03 0.0000000000000000e+00  4.3950449675139933e-03 8.4618779698278340e-03 0.0000000000000000e+00  2.8620112784215153e-03 3.5597461299817250e-03 0.0000000000000000e+00  3.1409175828965791e-03 -6.4782009024106420e-04 0.0000000000000000e+00  2.5371764784681197e-03 1.0706428737736319e-04 0.0000000000000000e+00  1.1957246905259721e-03 3.4993411736173712e-04 0.0000000000000000e+00  2.1520962768734907e-04 4.0949166726507056e-04 0.0000000000000000e+00  -7.5462065044676915e-04 4.0236770887258546e-04 0.0000000000000000e+00  -2.0468472032148370e-03 4.1900371206269010e-04 0.0000000000000000e+00  -3.1814280836005553e-03 -1.0978084568734820e-03 0.0000000000000000e+00  -3.0261093777719764e-03 2.8172012313369722e-03 0.0000000000000000e+00  -4.7423956959229364e-03 7.9954181214516584e-03 0.0000000000000000e+00  -5.5698187019241297e-03 6.0196426131869461e-03 0.0000000000000000e+00  -4.5662900720844102e-03 4.0116666110581595e-03 0.0000000000000000e+00  -2.5207125434914303e-03 2.0033853238454729e-03 0.0000000000000000e+00  0.0000000000000000e+00 0.0000000000000000e+00 0.0000000000000000e+00  0.0000000000000000e+00 0.0000000000000000e+00 0.0000000000000000e+00  5.9214747685474283e-03 2.9385286973947866e-03 0.0000000000000000e+00  1.1529660037724975e-02 6.0134461195454321e-03 0.0000000000000000e+00  1.6470765901034953e-02 9.3879335980388244e-03 0.0000000000000000e+00  2.0305846065854612e-02 1.3289695949097010e-02 0.0000000000000000e+00  1.9517305060688706e-02 4.3079162467739799e-03 0.0000000000000000e+00  2.0254868119420014e-02 -4.5856111511524012e-03 0.0000000000000000e+00  1.4015665370447128e-02 -3.4885512659703945e-03 0.0000000000000000e+00  7.0416752683432745e-03 -2.8845022434234166e-03 0.0000000000000000e+00  -2.1562363148393217e-04 -2.7488192737703705e-03 0.0000000000000000e+00  -7.5544151374988327e-03 -3.0986533512619525e-03 0.0000000000000000e+00  -1.4806342369146864e-02 -4.0396184904672137e-03 0.0000000000000000e+00  -2.1642610711712123e-02 -5.8371526272029137e-03 0.0000000000000000e+00  -2.0881628796906779e-02 3.5959265885274609e-03 0.0000000000000000e+00  -2.1368237001796183e-02 1.3107430968665660e-02 0.0000000000000000e+00  -1.7190315812453033e-02 9.2328021103652187e-03 0.0000000000000000e+00  -1.1976459436980998e-02 5.9072345999365266e-03 0.0000000000000000e+00  -6.1356847670564667e-03 2.8854666402206527e-03 0.0000000000000000e+00  0.0000000000000000e+00 0.0000000000000000e+00 0.0000000000000000e+00  0.0000000000000000e+00 0.0000000000000000e+00 0.0000000000000000e+00  1.0663953602097986e-02 3.2466764016580488e-03 0.0000000000000000e+00  2.1338557258903764e-02 6.6435833263622504e-03 0.0000000000000000e+00  3.2049104690276858e-02 1.0354272131985814e-02 0.0000000000000000e+00  4.2855475374318108e-02 1.4568480925228021e-02 0.0000000000000000e+00  4.2967152094868823e-02 4.0158783206409691e-03 0.0000000000000000e+00  4.3058881845150325e-02 -6.6704408075088893e-03 0.0000000000000000e+00  2.8449343400901120e-02 -5.1153057220558436e-03 0.0000000000000000e+00  1.4027658728400521e-02 -4.2483627922565801e-03 0.0000000000000000e+00  -3.2299277439418991e-04 -3.9674240145909697e-03 0.0000000000000000e+00  -1.4714898913103531e-02 -4.2384369664097768e-03 0.0000000000000000e+00  -2.9253168213072618e-02 -5.0767132390618129e-03 0.0000000000000000e+00  -4.4020827687066513e-02 -6.5281295061259846e-03 0.0000000000000000e+00  -4.4126626168675645e-02 3.9514480959191439e-03 0.0000000000000000e+00  -4.4178189831068623e-02 1.4364848314600538e-02 0.0000000000000000e+00  -3.2933088386356883e-02 1.0242683302065734e-02 0.0000000000000000e+00  -2.1881687797665122e-02 6.5833895409502493e-03 0.0000000000000000e+00  -1.0922439460905735e-02 3.2200299419641661e-03 0.0000000000000000e+00  0.0000000000000000e+00 0.0000000000000000e+00 0.0000000000000000e+00  0.0000000000000000e+00 0.0000000000000000e+00 0.0000000000000000e+00  1.5352268690535823e-02 2.9527535145656911e-03 0.0000000000000000e+00  3.0984601550664140e-02 6.0161558723194316e-03 0.0000000000000000e+00  4.7213403621591876e-02 9.3028582522301992e-03 0.0000000000000000e+00  6.4398047815358142e-02 1.2927815007196237e-02 0.0000000000000000e+00  6.5009247896279446e-02 3.8563553340064728e-03 0.0000000000000000e+00  6.4456259762553342e-02 -5.1694169102988316e-03 0.0000000000000000e+00  4.2161814184751956e-02 -3.9987460603757175e-03 0.0000000000000000e+00  2.0742483719080617e-02 -3.2758482802790704e-03 0.0000000000000000e+00  -2.6638109629660182e-04 -2.9851571131869798e-03 0.0000000000000000e+00  -2.1304804760616667e-02 -3.1160626756382708e-03 0.0000000000000000e+00  -4.2813327655422444e-02 -3.6681303955505696e-03 0.0000000000000000e+00  -6.5260997731025172e-02 -4.6488702957978995e-03 0.0000000000000000e+00  -6.5894287548135450e-02 4.2110589366454653e-03 0.0000000000000000e+00  -6.5322981729162122e-02 1.3076208172028678e-02 0.0000000000000000e+00  -4.7864626474809248e-02 9.3962168456450806e-03 0.0000000000000000e+00  -3.1396187591469497e-02 6.0724061393113322e-03 0.0000000000000000e+00  -1.5548820516769863e-02 2.9794768902395644e-03 0.0000000000000000e+00  0.0000000000000000e+00 0.0000000000000000e+00 0.0000000000000000e+00  0.0000000000000000e+00 0.0000000000000000e+00 0.0000000000000000e+00  1.8882090796396279e-02 2.2159300338572851e-03 0.0000000000000000e+00  3.8226057716684421e-02 4.4942814301904910e-03 0.0000000000000000e+00  5.8519088366525099e-02 6.8964482909015645e-03 0.0000000000000000e+00  8.0288278522131731e-02 9.4813956032991278e-03 0.0000000000000000e+00  8.1213902739425858e-02 3.8003583363844344e-03 0.0000000000000000e+00  8.0342233055375176e-02 -1.8748825514225808e-03 0.0000000000000000e+00  5.2410723296182515e-02 -1.0977292435748924e-03 0.0000000000000000e+00  2.5833442744111958e-02 -5.8268411499568765e-04 0.0000000000000000e+00  -9.1326073587699586e-05 -3.2460216316949794e-04 0.0000000000000000e+00  -2.6031659691512346e-02 -3.1698410968370805e-04 0.0000000000000000e+00  -5.2654471842113186e-02 -5.5250086347532177e-04 0.0000000000000000e+00  -8.0658465582221617e-02 -1.0216069268473389e-03 0.0000000000000000e+00  -8.1586054303984606e-02 4.4019347178564537e-03 0.0000000000000000e+00  -8.0688871112291671e-02 9.8077287115510194e-03 0.0000000000000000e+00  -5.8794710147816433e-02 7.1218648901499497e-03 0.0000000000000000e+00  -3.8400072234469937e-02 4.6359447979929793e-03 0.0000000000000000e+00  -1.8965922601424462e-02 2.2843879779378246e-03 0.0000000000000000e+00  0.0000000000000000e+00 0.0000000000000000e+00 0.0000000000000000e+00  0.0000000000000000e+00 0.0000000000000000e+00 0.0000000000000000e+00  2.0553105711086223e-02 1.2295987467707519e-03 0.0000000000000000e+00  4.1648800697737964e-02 2.4768222605827820e-03 0.0000000000000000e+00  6.3850462486768816e-02 3.7575243394897479e-03 0.0000000000000000e+00  8.7762741977220809e-02 5.0840989062158918e-03 0.0000000000000000e+00  8.8822192499168659e-02 3.7761337592961881e-03 0.0000000000000000e+00  8.7793051314783252e-02 2.4750398003231858e-03 0.0000000000000000e+00  5.7286843557520985e-02 2.8457212528764202e-03 0.0000000000000000e+00  2.8336318887597422e-02 3.1319536675834055e-03 0.0000000000000000e+00  1.4645766446749699e-04 3.3317559971783430e-03 0.0000000000000000e+00  -2.8048283124240073e-02 3.4487589325669960e-03 0.0000000000000000e+00  -5.7013170848025825e-02 3.4920143588517373e-03 0.0000000000000000e+00  -8.7541682996611525e-02 3.4765009109590903e-03 0.0000000000000000e+00  -8.8589717858338635e-02 4.4899684020500230e-03 0.0000000000000000e+00  -8.7545455081074114e-02 5.4909730810850056e-03 0.0000000000000000e+00  -6.3683492451144477e-02 4.0468056557923932e-03 0.0000000000000000e+00  -4.1535507755217554e-02 2.6621820268880113e-03 0.0000000000000000e+00  -2.0495828213114072e-02 1.3200149365249132e-03 0.0000000000000000e+00  -1.1577633831468663e-10 0.0000000000000000e+00 0.0000000000000000e+00  0.0000000000000000e+00 0.0000000000000000e+00 0.0000000000000000e+00  2.0043247293175220e-02 1.7295683075968987e-04 0.0000000000000000e+00  4.0625239491427864e-02 3.2544892550656547e-04 0.0000000000000000e+00  6.2301739429475901e-02 4.3498909410660889e-04 0.0000000000000000e+00  8.5662295142110448e-02 4.7500295706749370e-04 0.0000000000000000e+00  8.6703183303795159e-02 3.7971190249292595e-03 0.0000000000000000e+00  8.5685209625721959e-02 7.1273914496719744e-03 0.0000000000000000e+00  5.5985385522799157e-02 7.1249611411916651e-03 0.0000000000000000e+00  2.7816731951269210e-02 7.1901338819977739e-03 0.0000000000000000e+00  4.0354251955014998e-04 7.3171074496184395e-03 0.0000000000000000e+00  -2.7005901039635113e-02 7.5074326859231781e-03 0.0000000000000000e+00  -5.5162931417931403e-02 7.7698789384516818e-03 0.0000000000000000e+00  -8.4842046934805473e-02 8.1205878332464183e-03 0.0000000000000000e+00  -8.5850616570383523e-02 4.5096280013248429e-03 0.0000000000000000e+00  -8.4811065532632526e-02 8.9137696156701171e-04 0.0000000000000000e+00  -6.1674843543028095e-02 7.3384024737045781e-04 0.0000000000000000e+00  -4.0212538360275066e-02 5.1833835017154337e-04 0.0000000000000000e+00  -1.9838376643557233e-02 2.6749559996145771e-04 0.0000000000000000e+00  0.0000000000000000e+00 0.0000000000000000e+00 0.0000000000000000e+00  0.0000000000000000e+00 0.0000000000000000e+00 0.0000000000000000e+00  1.7367475983664848e-02 -8.0187722523601581e-04 0.0000000000000000e+00  3.5200533946515830e-02 -1.6541762714889700e-03 0.0000000000000000e+00  5.3978315292756880e-02 -2.6094582032259507e-03 0.0000000000000000e+00  7.4204236843823240e-02 -3.7245945709131092e-03 0.0000000000000000e+00  7.5105642814771237e-02 3.8623510572961066e-03 0.0000000000000000e+00  7.4232098750460176e-02 1.1456809267988944e-02 0.0000000000000000e+00  4.8603332469595938e-02 1.1135514446445010e-02 0.0000000000000000e+00  2.4295546089397269e-02 1.1002727305897573e-02 0.0000000000000000e+00  6.4445187181497643e-04 1.1050673127633411e-02 0.0000000000000000e+00  -2.2995968967440092e-02 1.1279352115583690e-02 0.0000000000000000e+00  -4.7271372255405807e-02 1.1696657129350165e-02 0.0000000000000000e+00  -7.2845043061834328e-02 1.2318524464750794e-02 0.0000000000000000e+00  -7.3686190483158678e-02 4.4806790759200623e-03 0.0000000000000000e+00  -7.2776324640463824e-02 -3.3613993652674428e-03 0.0000000000000000e+00  -5.2930678907777119e-02 -2.3469479499742987e-03 0.0000000000000000e+00  -3.4513252760420721e-02 -1.4838907247444830e-03 0.0000000000000000e+00  -1.7026993014408635e-02 -7.1814919359567699e-04 0.0000000000000000e+00  0.0000000000000000e+00 0.0000000000000000e+00 0.0000000000000000e+00  0.0000000000000000e+00 0.0000000000000000e+00 0.0000000000000000e+00  1.2817358824517436e-02 -1.5752932463920075e-03 0.0000000000000000e+00  2.5974454058870580e-02 -3.2222245091546959e-03 0.0000000000000000e+00  3.9820469507672894e-02 -5.0145854435629930e-03 0.0000000000000000e+00  5.4721611581488978e-02 -7.0307336518528347e-03 0.0000000000000000e+00  5.5390776235749790e-02 3.9671782437641764e-03 0.0000000000000000e+00  5.4762415931958200e-02 1.4970801828310629e-02 0.0000000000000000e+00  3.5979579710673060e-02 1.4394711460452654e-02 0.0000000000000000e+00  1.8166909679389255e-02 1.4096382512314811e-02 0.0000000000000000e+00  8.4081388568965545e-04 1.4065336021227060e-02 0.0000000000000000e+00  -1.6469335369989159e-02 1.4300889049209849e-02 0.0000000000000000e+00  -3.4233918461831638e-02 1.4809473017725948e-02 0.0000000000000000e+00  -5.2935514079016713e-02 1.5606373320392075e-02 0.0000000000000000e+00  -5.3514620380528392e-02 4.4214324888843144e-03 0.0000000000000000e+00  -5.2829826323563964e-02 -6.7655525285201280e-03 0.0000000000000000e+00  -3.8434211406077438e-02 -4.8220722317766588e-03 0.0000000000000000e+00  -2.5065424832247513e-02 -3.0968881681239908e-03 0.0000000000000000e+00  -1.2367259385315693e-02 -1.5135248538252089e-03 0.0000000000000000e+00  0.0000000000000000e+00 0.0000000000000000e+00 0.0000000000000000e+00  0.0000000000000000e+00 0.0000000000000000e+00 0.0000000000000000e+00  6.8935737488595621e-03 -2.0624576332235736e-03 0.0000000000000000e+00  1.3965948953746764e-02 -4.2087860724975765e-03 0.0000000000000000e+00  2.1401384541188374e-02 -6.5250565656330816e-03 0.0000000000000000e+00  2.9392111379614214e-02 -9.1018187323561421e-03 0.0000000000000000e+00  2.9765055491699336e-02 4.1006931610263770e-03 0.0000000000000000e+00  2.9448051603527335e-02 1.7305738941737439e-02 0.0000000000000000e+00  1.9517531728162271e-02 1.6547746985071974e-02 0.0000000000000000e+00  1.0110411841840149e-02 1.6122891134204880e-02 0.0000000000000000e+00  9.7187183590258025e-04 1.6019440632923945e-02 0.0000000000000000e+00  -8.1472688500300143e-03 1.6234509347197789e-02 0.0000000000000000e+00  -1.7495681981727688e-02 1.6773735343660265e-02 0.0000000000000000e+00  -2.7327920515979622e-02 1.7651352956868122e-02 0.0000000000000000e+00  -2.7585167050568873e-02 4.3444981311123202e-03 0.0000000000000000e+00  -2.7192311610585475e-02 -8.9635879536105970e-03 0.0000000000000000e+00  -1.9790034610127190e-02 -6.42420192908838