<?xml version="1.0"?>
<VTKFile type="UnstructuredGrid"  version="0.1"  >
<UnstructuredGrid>
<Piece  NumberOfPoints="589" NumberOfCells="1080">
<Points>
<DataArray  type="Float64"  NumberOfComponents="3"  format="ascii">-9 0 0  -8 0 0  -7 0 0  -6 0 0  -5 0 0  -4 0 0  -3 0 0  -2 0 0  -1 0 0  0 0 0  1 0 0  2 0 0  3 0 0  4 0 0  5 0 0  6 0 0  7 0 0  8 0 0  9 0 0  -9 2 0  -8.000000436881988 1.999999595087778 0  -7.000000935441274 1.999999206610715 0  -6.000001592534686 1.99999884381695 0  -5.000002589487416 1.999998497459076 0  -4.000001908007534 1.999998966366638 0  -3.00000112538157 1.99999923492431 0  -2.000000623652128 1.999999409753902 0  -1.000000291258844 1.999999541697557 0  -6.178672274154098e-08 1.999999597000525 0  1.000000158229944 1.99999956232527 0  2.00000045662425 1.999999443393159 0  3.000000901555049 1.999999277567385 0  4.000001530609201 1.999999056543995 0  5.000002368977889 1.999998856175833 0  6.000001450534947 1.999999034863119 0  7.000000849437867 1.999999308075078 0  8.000000396119804 1.999999639803389 0  9 2 0  -9 4 0  -8.000000627054272 3.999999124435679 0  -7.000001236745444 3.999998310488986 0  -6.000001825630844 3.999997621890976 0  -5.000002408330343 3.999997127550607 0  -4.000001615698864 3.999997251495584 0  -3.00000095641924 3.99999773115841 0  -2.000000506072636 3.999998352593672 0  -1.000000238011001 3.99999882994993 0  -8.32153060435574e-08 3.999999024303004 0  1.000000063569165 3.999998890941721 0  2.000000309584179 3.99999849780375 0  3.000000756884849 3.999997946172365 0  4.000001417680081 3.999997378414727 0  5.000002162401267 3.999997113293796 0  6.000001631684301 3.999997691628209 0  7.000001107758645 3.999998382085602 0  8.000000563445848 3.99999916573437 0  9 4 0  -9 6 0  -8.000000886678439 5.999998407315124 0  -7.000001621272826 5.999996912974296 0  -6.000002083471278 5.999995622935778 0  -5.000002231612342 5.999994649685759 0  -4.000001027626078 5.999995236534029 0  -3.000000300042287 5.999996502782094 0  -2.000000097192729 5.999997831978336 0  -1.000000129977022 5.999998593491966 0  -1.751399341339983e-07 5.999998775404292 0  0.9999998268346603 5.999998527914158 0  1.999999928083905 5.99999785669041 0  3.000000178648195 5.999996755836451 0  4.000000707180313 5.999995617247365 0  5.000001765002862 5.999995078838678 0  6.000001785669051 5.999995899902792 0  7.000001447627852 5.999997083332492 0  8.000000807303524 5.999998489199848 0  9 6 0  -9 8 0  -8.000001754635456 7.999997296824979 0  -7.00000309538291 7.999994698257251 0  -6.000003597542492 7.999992356832962 0  -5.00000283744426 7.999990544696123 0  -4.000000963772407 7.999993172792617 0  -3.00000089248646 7.999996268131913 0  -2.000001160413292 7.999997861381019 0  -1.000000881542212 7.999998174440683 0  -2.151975029996586e-07 7.999998273487837 0  1.000000379893216 7.999998360561008 0  2.000000555436603 7.99999769602876 0  3.000000199132688 7.999996468531644 0  4.000000424881994 7.999993832221847 0  5.000002383201397 7.999990943955505 0  6.000003374481055 7.999992658722827 0  7.000002996626247 7.999994894835284 0  8.000001719074325 7.999997392939808 0  9 8 0  -9 10 0  -8.000004278121812 9.999995767925837 0  -7.000007923816962 9.999991454996165 0  -6.000010160619102 9.99998697362865 0  -5.000009863260102 9.999982219460822 0  -4.000007244194231 9.999989874586904 0  -3.000006934163738 9.999996576212656 0  -2.000005203968065 9.999995903791765 0  -1.000002558113696 9.999995687665436 0  -4.593821349290389e-07 9.999995640984672 0  1.000001626867819 9.99999560926679 0  2.000004195952635 9.999995446568251 0  3.000006862395028 9.999997274079771 0  4.000007282597463 9.999990919402954 0  5.000010107744017 9.999982832826399 0  6.000010439789174 9.999987332197703 0  7.000008144386432 9.999991658391476 0  8.000004396915216 9.999995860872511 0  9 10 0  -9 12 0  -8.000009331226481 11.99999456248305 0  -7.000018387683476 11.99998888554119 0  -6.000026860048934 11.99998268171472 0  -5.000034376825718 11.99997554918772 0  -4.000033372662183 11.99998811693473 0  -3.000033986494802 12.00000055689924 0  -2.000022833980332 11.99999901737542 0  -1.000011310331338 11.99999819892877 0  3.156913223978059e-07 11.99999802245778 0  1.000012066327008 11.99999850262359 0  2.00002401402093 11.99999980928118 0  3.000036078290676 12.0000023849377 0  4.000035567160884 11.99998896480298 0  5.000036111067262 11.99997547924897 0  6.000028014709637 11.99998269845602 0  7.000019100324944 11.99998891684664 0  8.000009672467394 11.99999458225076 0  9 12 0  -9 14 0  -8.000015483249214 13.99999431477171 0  -7.000031187667877 13.99998842367873 0  -6.000047381418275 13.99998210467985 0  -5.000064446311358 13.9999751062863 0  -4.000064840486201 13.99998807647835 0  -3.000064352541031 14.00000126230071 0  -2.000041948843795 13.99999924672681 0  -1.000020472186796 13.9999981423476 0  5.923341789452707e-07 13.99999777743516 0  1.000021717761246 13.99999809007735 0  2.000043366193753 13.99999909609898 0  3.000066001601417 14.00000085738356 0  4.000066759372983 13.99998792153818 0  5.000066618179097 13.99997511559162 0  6.000048861330023 13.99998206811405 0  7.00003210991542 13.99998838732618 0  8.000015926306224 13.99999429429125 0  9 14 0  -9 16 0  -8.000020750400232 15.99999489053351 0  -7.000042030009938 15.99998967347235 0  -6.000064417711703 15.99998424527131 0  -5.000088596196615 15.99997851464121 0  -4.000089544117618 15.99998776292329 0  -3.000088339525798 15.99999693118548 0  -2.00005735605927 15.99999583145187 0  -1.000027985728562 15.99999512801723 0  6.253481539689064e-07 15.99999482229786 0  1.000029277388605 15.99999490411471 0  2.000058770930413 15.99999536196588 0  3.00008996416999 15.99999617827216 0  4.000091258706759 15.99998713650011 0  5.000090355587725 15.99997809100975 0  6.000065685617961 15.99998397106462 0  7.000042847924679 15.99998950683447 0  8.000021150754749 15.99999481137798 0  9 16 0  -9 18 0  -8.00002390052361 17.99999589666988 0  -7.000048439691549 17.99999176782842 0  -6.000074290359006 17.99998759558322 0  -5.00010219379149 17.99998337843844 0  -4.00010334043454 17.999987299604 0  -3.000102009295063 17.99999121887897 0  -2.000066311229667 17.99999083102734 0  -1.000032462516979 17.99999052290644 0  4.94494557806082e-07 17.99999031709734 0  1.000033471243801 17.99999021409234 0  2.000067377391973 17.99999019407985 0  3.000103164578059 17.99999021413148 0  4.000104538154822 17.99998653189176 0  5.000103403473421 17.99998288110312 0  6.000075180248259 17.99998725116592 0  7.00004902348441 17.99999155125472 0  8.000024189338875 17.99999579214879 0  9 18 0  -9 20 0  -8.00002449592691 19.99999700483856 0  -7.000049603093855 19.99999403578497 0  -6.000075951519001 19.99999112547284 0  -5.000104207816004 19.99998831982523 0  -4.00010530542142 19.99998684883925 0  -3.000104074179875 19.99998538089286 0  -2.000067869514079 19.99998551169269 0  -1.000033372773745 19.99998550889953 0  2.846845898149541e-07 19.99998540070527 0  1.00003394774059 19.99998519212011 0  2.000068460213491 19.99998486594497 0  3.000104687780444 19.99998438196446 0  4.000105914573178 19.99998612307193 0  5.000104814596171 19.99998788425388 0  6.0000764085536 19.9999908111404 0  7.000049908269729 19.99999383243809 0  8.000024648560942 19.99999690507637 0  9 20 0  -9 22 0  -8.000022646263645 21.99999800856213 0  -7.000045801231066 21.99999606875703 0  -6.000069980802999 21.99999423667747 0  -5.000095714121496 21.99999257735631 0  -4.000096636802749 21.99998643182292 0  -3.000095654099303 21.99998029333608 0  -2.000062596551415 21.99998072669537 0  -1.000030926213301 21.99998091647032 0  5.248978598181302e-08 21.99998088585211 0  1.000031026795467 21.9999806404791 0  2.000062683129205 21.99998016899243 0  3.000095714643414 21.99997944311398 0  4.000096670321181 21.99998583961282 0  5.00009573536667 21.99999224918164 0  6.000070013439916 21.99999399344142 0  7.000045830526015 21.99999590823845 0  8.000022663089361 21.9999979288468 0  9 22 0  -9 24 0  -8.000018761702263 23.99999880574453 0  -7.000037900756591 23.99999767081176 0  -6.000057794773726 23.99999665682634 0  -5.000078820893901 23.99999582991605 0  -4.00007953090797 23.99998608317721 0  -3.000078846339976 23.99997634713138 0  -2.000051775138882 23.99997691598081 0  -1.000025713292669 23.99997720556467 0  -1.621027263170684e-07 23.99997722996967 0  1.000025377944428 23.99997699324163 0  2.000051405741829 23.99997648954893 0  3.000078418136582 23.99997570353356 0  4.000079065311886 23.99998565461688 0  5.000078343387229 23.9999956164335 0  6.000057461984864 23.99999649357142 0  7.000037690693142 23.99999756077803 0  8.000018660157703 23.99999875042666 0  9 24 0  -9 26 0  -8.000013367659792 25.99999936563026 0  -7.000026980192033 25.99999878906792 0  -6.000041080045202 25.99999832866087 0  -5.000055904051609 25.99999804367971 0  -4.000056410632133 25.99998582291683 0  -3.000056021805155 25.9999736141588 0  -2.000036916647302 25.99997422227124 0  -1.000018457906631 25.99997455532598 0  -3.321105525480066e-07 25.99997461857141 0  1.000017778279611 25.99997441381292 0  2.00003619034023 25.99997393934209 0  3.000055216063576 25.99997319040627 0  4.000055564837241 25.99998555188531 0  5.000055049818188 25.99999792298459 0  6.000040469815007 25.99999823341434 0  7.000026587677762 25.99999872354107 0  8.000013175655708 25.99999933230191 0  9 26 0  -9 28 0  -8.000006994057175 27.99999969428348 0  -7.000014110181849 27.99999944269865 0  -6.00002146844838 27.9999992987982 0  -5.000029184535173 27.99999931478369 0  -4.000029512614351 27.99998565831149 0  -3.000029397111502 27.99997201371428 0  -2.000019472812808 27.9999726287566 0  -1.000009870893197 27.99997298428875 0  -4.404833741094644e-07 27.99997307915253 0  1.000008972224492 27.99997291319668 0  2.000018520632897 27.999972487032 0  3.000028354361915 27.99997180248025 0  4.00002843018812 27.99998552619178 0  5.000028097239022 27.99999925985911 0  6.000020685923658 27.9999992544646 0  7.000013604049734 27.9999994117648 0  8.00000674562806 27.99999967842631 0  9 28 0  -9 3
[...]
<PointData  Vectors="f_44-2"> 
<DataArray  type="Float64"  Name="f_44-2"  NumberOfComponents="3" format="ascii">0.0000000000000000e+00 0.0000000000000000e+00 0.0000000000000000e+00  0.0000000000000000e+00 0.0000000000000000e+00 0.0000000000000000e+00  0.0000000000000000e+00 0.0000000000000000e+00 0.0000000000000000e+00  0.0000000000000000e+00 0.0000000000000000e+00 0.0000000000000000e+00  0.0000000000000000e+00 0.0000000000000000e+00 0.0000000000000000e+00  0.0000000000000000e+00 0.0000000000000000e+00 0.0000000000000000e+00  0.0000000000000000e+00 0.0000000000000000e+00 0.0000000000000000e+00  0.0000000000000000e+00 0.0000000000000000e+00 0.0000000000000000e+00  0.0000000000000000e+00 0.0000000000000000e+00 0.0000000000000000e+00  0.0000000000000000e+00 0.0000000000000000e+00 0.0000000000000000e+00  0.0000000000000000e+00 0.0000000000000000e+00 0.0000000000000000e+00  0.0000000000000000e+00 0.0000000000000000e+00 0.0000000000000000e+00  0.0000000000000000e+00 0.0000000000000000e+00 0.0000000000000000e+00  0.0000000000000000e+00 0.0000000000000000e+00 0.0000000000000000e+00  0.0000000000000000e+00 0.0000000000000000e+00 0.0000000000000000e+00  0.0000000000000000e+00 0.0000000000000000e+00 0.0000000000000000e+00  0.0000000000000000e+00 0.0000000000000000e+00 0.0000000000000000e+00  0.0000000000000000e+00 0.0000000000000000e+00 0.0000000000000000e+00  0.0000000000000000e+00 0.0000000000000000e+00 0.0000000000000000e+00  0.0000000000000000e+00 0.0000000000000000e+00 0.0000000000000000e+00  -1.7784349617214222e-05 -1.8950879689276352e-05 0.0000000000000000e+00  -3.7870932923369214e-05 -3.6591306502003766e-05 0.0000000000000000e+00  -6.4212790354888647e-05 -5.1981729592320467e-05 0.0000000000000000e+00  -1.0463170614980083e-04 -6.5114603375687874e-05 0.0000000000000000e+00  -7.3445863741204427e-05 -4.5895316298081829e-05 0.0000000000000000e+00  -3.8903097497452870e-05 -3.3078369124684592e-05 0.0000000000000000e+00  -1.8385480781171505e-05 -2.3417278093854978e-05 0.0000000000000000e+00  -7.3520586298270676e-06 -1.5968637072677256e-05 0.0000000000000000e+00  -2.1613858718328221e-06 -1.2764597763176789e-05 0.0000000000000000e+00  2.5256235918711536e-06 -1.4816989919064882e-05 0.0000000000000000e+00  1.1797015621351088e-05 -2.1693939876334970e-05 0.0000000000000000e+00  2.9342633210775624e-05 -3.0727409617311179e-05 0.0000000000000000e+00  5.6787558171143309e-05 -4.1673664045004306e-05 0.0000000000000000e+00  9.4288437235469133e-05 -4.9346064760173811e-05 0.0000000000000000e+00  5.7476449845078075e-05 -4.3385954108957197e-05 0.0000000000000000e+00  3.3760709193537997e-05 -3.1899487135357274e-05 0.0000000000000000e+00  1.5828996236244956e-05 -1.6839513683416976e-05 0.0000000000000000e+00  0.0000000000000000e+00 0.0000000000000000e+00 0.0000000000000000e+00  0.0000000000000000e+00 0.0000000000000000e+00 0.0000000000000000e+00  -2.6359719997313692e-05 -4.3143493947464504e-05 0.0000000000000000e+00  -5.0720724656472018e-05 -8.2182557538484436e-05 0.0000000000000000e+00  -7.2117251655735422e-05 -1.1299360435976821e-04 0.0000000000000000e+00  -9.1167804941073475e-05 -1.3139746534440047e-04 0.0000000000000000e+00  -5.1894021431639830e-05 -1.2523384743879179e-04 0.0000000000000000e+00  -2.1647015060270804e-05 -9.7594161465873604e-05 0.0000000000000000e+00  -5.2229653960683150e-06 -6.1749966120941380e-05 0.0000000000000000e+00  -8.2429355819790472e-07 -3.3601176707919658e-05 0.0000000000000000e+00  -3.4040420839599075e-06 -2.2151950088178441e-05 0.0000000000000000e+00  -6.3975320440219677e-06 -3.0369091161367480e-05 0.0000000000000000e+00  -3.2511634787069368e-06 -5.3705007691897969e-05 0.0000000000000000e+00  1.2421540778527593e-05 -8.5880655780578696e-05 0.0000000000000000e+00  4.1983711973189539e-05 -1.1855195816772786e-04 0.0000000000000000e+00  7.9105013807729735e-05 -1.3153160285978518e-04 0.0000000000000000e+00  6.2567745428825721e-05 -1.0887727479802729e-04 0.0000000000000000e+00  4.4385223518545879e-05 -7.8092917341729512e-05 0.0000000000000000e+00  2.3247065305194703e-05 -4.0797107833601690e-05 0.0000000000000000e+00  0.0000000000000000e+00 0.0000000000000000e+00 0.0000000000000000e+00  0.0000000000000000e+00 0.0000000000000000e+00 0.0000000000000000e+00  -4.2929897152188025e-05 -8.3753595652051157e-05 0.0000000000000000e+00  -7.5428443958327075e-05 -1.6068567398631214e-04 0.0000000000000000e+00  -8.9405679029166095e-05 -2.2363406693378963e-04 0.0000000000000000e+00  -8.2324283247434330e-05 -2.6540277263965921e-04 0.0000000000000000e+00  -1.6224789988611307e-05 -2.2817734622947793e-04 0.0000000000000000e+00  1.9349315018107097e-05 -1.4940006696950199e-04 0.0000000000000000e+00  2.0296070286432324e-05 -6.6799617634713104e-05 0.0000000000000000e+00  6.1840391358229270e-06 -2.0183561708356541e-05 0.0000000000000000e+00  -8.4506500577223495e-06 -9.8722284125595773e-06 0.0000000000000000e+00  -2.0274269358098508e-05 -2.4879838439164214e-05 0.0000000000000000e+00  -2.6205402202480509e-05 -6.6051099168963495e-05 0.0000000000000000e+00  -2.1916151126165965e-05 -1.3456070422268560e-04 0.0000000000000000e+00  1.1075603334687698e-06 -2.0544000195327086e-04 0.0000000000000000e+00  5.8194234691052059e-05 -2.3960927901182547e-04 0.0000000000000000e+00  7.4240118193408288e-05 -2.0688855279503847e-04 0.0000000000000000e+00  6.6832263568138682e-05 -1.5033194602155582e-04 0.0000000000000000e+00  3.9100690605705735e-05 -7.8759675565928607e-05 0.0000000000000000e+00  0.0000000000000000e+00 0.0000000000000000e+00 0.0000000000000000e+00  0.0000000000000000e+00 0.0000000000000000e+00 0.0000000000000000e+00  -1.0122239965889060e-04 -1.5164894271236170e-04 0.0000000000000000e+00  -1.7422124514644211e-04 -2.9512267628418944e-04 0.0000000000000000e+00  -1.9092871695854010e-04 -4.1899247963924301e-04 0.0000000000000000e+00  -1.2550891405028927e-04 -5.0379105414375346e-04 0.0000000000000000e+00  -1.1508345896677612e-05 -3.3497703984316081e-04 0.0000000000000000e+00  -1.9785108749969629e-05 -1.3635283766474493e-04 0.0000000000000000e+00  -4.9330200380634974e-05 -3.6920553594180783e-05 0.0000000000000000e+00  -4.2768036954667843e-05 -2.1542560142580307e-05 0.0000000000000000e+00  -9.8990821961162019e-06 -1.6848473521689943e-05 0.0000000000000000e+00  1.7682662382810607e-05 -9.2308604324620298e-06 0.0000000000000000e+00  1.9241018651340127e-05 -5.0489230112406076e-05 0.0000000000000000e+00  -1.5916180475337875e-05 -1.2369032638618070e-04 0.0000000000000000e+00  -1.7048883058434877e-05 -2.9242773988372552e-04 0.0000000000000000e+00  9.8061642968042329e-05 -4.8005230101571460e-04 0.0000000000000000e+00  1.7972708587092221e-04 -4.0024233918009805e-04 0.0000000000000000e+00  1.7057369390963853e-04 -2.8263279606967670e-04 0.0000000000000000e+00  1.0043029826767798e-04 -1.4547116257790919e-04 0.0000000000000000e+00  0.0000000000000000e+00 0.0000000000000000e+00 0.0000000000000000e+00  0.0000000000000000e+00 0.0000000000000000e+00 0.0000000000000000e+00  -2.7240598336943144e-04 -2.5224241925348118e-04 0.0000000000000000e+00  -4.9816908715855849e-04 -5.0797135915952110e-04 0.0000000000000000e+00  -6.2095743662564536e-04 -7.7062922417555138e-04 0.0000000000000000e+00  -5.6103875314985328e-04 -1.0436012997105302e-03 0.0000000000000000e+00  -3.9082570973578325e-04 -5.2384083928356585e-04 0.0000000000000000e+00  -3.9607079808746015e-04 -7.3051697308826487e-05 0.0000000000000000e+00  -3.0703740642663640e-04 -1.3570256019975881e-04 0.0000000000000000e+00  -1.4741968859315036e-04 -1.5578884111348368e-04 0.0000000000000000e+00  -2.5366830261614452e-05 -1.6049299585201062e-04 0.0000000000000000e+00  9.5740352342692852e-05 -1.6124419569410348e-04 0.0000000000000000e+00  2.5040029097618001e-04 -1.6779045416526531e-04 0.0000000000000000e+00  3.9901735154759517e-04 -2.5124757041990455e-05 0.0000000000000000e+00  4.0398973982700142e-04 -4.4960192495579056e-04 0.0000000000000000e+00  5.9156089497079678e-04 -1.0001489267981809e-03 0.0000000000000000e+00  6.4848342006475278e-04 -7.4478954709017128e-04 0.0000000000000000e+00  5.1827133788701703e-04 -4.9313907140589863e-04 0.0000000000000000e+00  2.8290481048901466e-04 -2.4541873801755805e-04 0.0000000000000000e+00  0.0000000000000000e+00 0.0000000000000000e+00 0.0000000000000000e+00  0.0000000000000000e+00 0.0000000000000000e+00 0.0000000000000000e+00  -6.3014827973490567e-04 -3.3888489899571589e-04 0.0000000000000000e+00  -1.2339955621860166e-03 -6.9309640542156376e-04 0.0000000000000000e+00  -1.7818074265530423e-03 -1.0809959648834394e-03 0.0000000000000000e+00  -2.2371286879923295e-03 -1.5282255958590579e-03 0.0000000000000000e+00  -2.1596181443154549e-03 -6.2231252549845278e-04 0.0000000000000000e+00  -2.2195957672643571e-03 2.7465245743932981e-04 0.0000000000000000e+00  -1.5128845860431100e-03 1.6493765542782246e-04 0.0000000000000000e+00  -7.5259508515003459e-04 1.0559968547551923e-04 0.0000000000000000e+00  2.7044567511598747e-05 9.2810910348451015e-05 0.0000000000000000e+00  8.1509920635764897e-04 1.2805596290288044e-04 0.0000000000000000e+00  1.6040471355166475e-03 2.2269534191589801e-04 0.0000000000000000e+00  2.3723285840964040e-03 4.0573263195111601e-04 0.0000000000000000e+00  2.3139628342750420e-03 -5.5595940614719971e-04 0.0000000000000000e+00  2.3601981179184987e-03 -1.5240267643862088e-03 0.0000000000000000e+00  1.8657516224314609e-03 -1.0744907023852420e-03 0.0000000000000000e+00  1.2865728373303428e-03 -6.8791802952178815e-04 0.0000000000000000e+00  6.5552325911324831e-04 -3.3615557465544371e-04 0.0000000000000000e+00  0.0000000000000000e+00 0.0000000000000000e+00 0.0000000000000000e+00  0.0000000000000000e+00 0.0000000000000000e+00 0.0000000000000000e+00  -1.0930704783604591e-03 -3.6421612267951352e-04 0.0000000000000000e+00  -2.1939260876956564e-03 -7.4346102598303219e-04 0.0000000000000000e+00  -3.3125566677473513e-03 -1.1540306902372887e-03 0.0000000000000000e+00  -4.4645764125049127e-03 -1.6146331687801928e-03 0.0000000000000000e+00  -4.4820256934764453e-03 -6.0696728526704331e-04 0.0000000000000000e+00  -4.4704607373130196e-03 4.1501317738480421e-04 0.0000000000000000e+00  -2.9330910171921944e-03 2.6408131326741374e-04 0.0000000000000000e+00  -1.4351920304784195e-03 1.8079997256702484e-04 0.0000000000000000e+00  4.5799745733602568e-05 1.5398713308665033e-04 0.0000000000000000e+00  1.5309168048711803e-03 1.7978823582928533e-04 0.0000000000000000e+00  3.0404218296354183e-03 2.5960387857093862e-04 0.0000000000000000e+00  4.5933194920441739e-03 3.9803740797086538e-04 0.0000000000000000e+00  4.6244042196678312e-03 -6.0866662268698043e-04 0.0000000000000000e+00  4.6244023100124555e-03 -1.6075739705846324e-03 0.0000000000000000e+00  3.4218893119246445e-03 -1.1523186707857549e-03 0.0000000000000000e+00  2.2623201564975766e-03 -7.4344453584821650e-04 0.0000000000000000e+00  1.1260140813999949e-03 -3.6445855510632388e-04 0.0000000000000000e+00  0.0000000000000000e+00 0.0000000000000000e+00 0.0000000000000000e+00  0.0000000000000000e+00 0.0000000000000000e+00 0.0000000000000000e+00  -1.5248218613681881e-03 -3.2942973636470029e-04 0.0000000000000000e+00  -3.0827074997088187e-03 -6.6852115656887391e-04 0.0000000000000000e+00  -4.7096705897354705e-03 -1.0269261391050999e-03 0.0000000000000000e+00  -6.4479336073891367e-03 -1.4140299211723945e-03 0.0000000000000000e+00  -6.5114153262303201e-03 -6.0782411714393125e-04 0.0000000000000000e+00  -6.4408809188617232e-03 1.9310214630676427e-04 0.0000000000000000e+00  -4.1954931630575273e-03 9.2646775820878115e-05 0.0000000000000000e+00  -2.0501953781900924e-03 3.0144993390759945e-05 0.0000000000000000e+00  4.8053442033348878e-05 4.7242182626407677e-06 0.0000000000000000e+00  2.1492161938918642e-03 1.5478600326606409e-05 0.0000000000000000e+00  4.3032982817604124e-03 6.2057020169007407e-05 0.0000000000000000e+00  6.5637016175068633e-03 1.4439152898532346e-04 0.0000000000000000e+00  6.6415894611468853e-03 -6.4797661010388655e-04 0.0000000000000000e+00  6.5818647014197762e-03 -1.4409464199459240e-03 0.0000000000000000e+00  4.8061606355630400e-03 -1.0446129019697668e-03 0.0000000000000000e+00  3.1449599393950853e-03 -6.7941157018410446e-04 0.0000000000000000e+00  1.5553003182585191e-03 -3.3464824274280031e-04 0.0000000000000000e+00  0.0000000000000000e+00 0.0000000000000000e+00 0.0000000000000000e+00  0.0000000000000000e+00 0.0000000000000000e+00 0.0000000000000000e+00  -1.8242810337050683e-03 -2.5599683403910653e-04 0.0000000000000000e+00  -3.6951154851824811e-03 -5.1632581032169189e-04 0.0000000000000000e+00  -5.6615018070157374e-03 -7.8502448791270378e-04 0.0000000000000000e+00  -7.7773596057319934e-03 -1.0654733128890080e-03 0.0000000000000000e+00  -7.8652979347523539e-03 -6.1991060677162838e-04 0.0000000000000000e+00  -7.7729558292297524e-03 -1.7490846123613730e-04 0.0000000000000000e+00  -5.0576541995864498e-03 -2.3058942226005603e-04 0.0000000000000000e+00  -2.4770452611026666e-03 -2.6881911577913075e-04 0.0000000000000000e+00  3.8649252911146834e-05 -2.8922438030531928e-04 0.0000000000000000e+00  2.5558756161459042e-03 -2.9211282183900491e-04 0.0000000000000000e+00  5.1409723837740782e-03 -2.7850121713974402e-04 0.0000000000000000e+00  7.8633806856740970e-03 -2.5023991244689872e-04 0.0000000000000000e+00  7.9602578579206617e-03 -6.7837720874610534e-04 0.0000000000000000e+00  7.8742691742027648e-03 -1.1046974317425078e-03 0.0000000000000000e+00  5.7323167479059432e-03 -8.1237513358913156e-04 0.0000000000000000e+00  3.7413776895163444e-03 -5.3362456468672025e-04 0.0000000000000000e+00  1.8471161846902303e-03 -2.6437733005899266e-04 0.0000000000000000e+00  0.0000000000000000e+00 0.0000000000000000e+00 0.0000000000000000e+00  0.0000000000000000e+00 0.0000000000000000e+00 0.0000000000000000e+00  -1.9375020287974501e-03 -1.6523700812448312e-04 0.0000000000000000e+00  -3.9252680198352766e-03 -3.3065312240184819e-04 0.0000000000000000e+00  -6.0153499590432542e-03 -4.9612415284181280e-04 0.0000000000000000e+00  -8.2633572941161870e-03 -6.6090566868256997e-04 0.0000000000000000e+00  -8.3575547566601526e-03 -6.3398913666788269e-04 0.0000000000000000e+00  -8.2595913488711700e-03 -6.0744549872166842e-04 0.0000000000000000e+00  -5.3811156904035881e-03 -6.2362532800635314e-04 0.0000000000000000e+00  -2.6443142636346146e-03 -6.3922113479129557e-04 0.0000000000000000e+00  2.3116282911202647e-05 -6.5323337074903057e-04 0.0000000000000000e+00  2.6910929649862090e-03 -6.6569819137380487e-04 0.0000000000000000e+00  5.4294903973307294e-03 -6.7765375612024201e-04 0.0000000000000000e+00  8.3104466996673006e-03 -6.9119321679815082e-04 0.0000000000000000e+00  8.4094019006784697e-03 -6.9738486860988433e-04 0.0000000000000000e+00  8.3158476308855655e-03 -7.0232612960891710e-04 0.0000000000000000e+00  6.0543369201423005e-03 -5.2585256366841494e-04 0.0000000000000000e+00  3.9510534791120013e-03 -3.4982581441867552e-04 0.0000000000000000e+00  1.9503295099968995e-03 -1.7462863058708057e-04 0.0000000000000000e+00  0.0000000000000000e+00 0.0000000000000000e+00 0.0000000000000000e+00  0.0000000000000000e+00 0.0000000000000000e+00 0.0000000000000000e+00  -1.8496474323931244e-03 -7.3762552600070740e-05 0.0000000000000000e+00  -3.7461145216496385e-03 -1.4476303309891658e-04 0.0000000000000000e+00  -5.7374262226000637e-03 -2.0998505527076715e-04 0.0000000000000000e+00  -7.8739867067115915e-03 -2.6590068845221929e-04 0.0000000000000000e+00  -7.9615694737360763e-03 -6.4966438933661036e-04 0.0000000000000000e+00  -7.8720112580720775e-03 -1.0336298260217877e-03 0.0000000000000000e+00  -5.1379616561514447e-03 -1.0190002264230159e-03 0.0000000000000000e+00  -2.5340826414025977e-03 -1.0159592734576756e-03 0.0000000000000000e+00  5.3993745390686008e-06 -1.0234336394186682e-03 0.0000000000000000e+00  2.5446669182137044e-03 -1.0413227622938363e-03 0.0000000000000000e+00  5.1478559452788324e-03 -1.0704743356424321e-03 0.0000000000000000e+00  7.8805987363210449e-03 -1.1126907771750174e-03 0.0000000000000000e+00  7.9688492771108586e-03 -7.0868701509611137e-04 0.0000000000000000e+00  7.8807366163636539e-03 -3.0382628433258107e-04 0.0000000000000000e+00  5.7433788807741866e-03 -2.3754625983826597e-04 0.0000000000000000e+00  3.7504813198015641e-03 -1.6271140515295048e-04 0.0000000000000000e+00  1.8519455454434710e-03 -8.2607897618615413e-05 0.0000000000000000e+00  0.0000000000000000e+00 0.0000000000000000e+00 0.0000000000000000e+00  0.0000000000000000e+00 0.0000000000000000e+00 0.0000000000000000e+00  -1.5744971031392886e-03 6.6623142506002045e-06 0.0000000000000000e+00  -3.1875446670966943e-03 1.8011321182208695e-05 0.0000000000000000e+00  -4.8784440582894635e-03 3.8925663002865239e-05 0.0000000000000000e+00  -6.6879753581338174e-03 7.4665265837004703e-05 0.0000000000000000e+00  -6.7606629658289175e-03 -6.6520854503485788e-04 0.0000000000000000e+00  -6.6884199928554976e-03 -1.4050534340084282e-03 0.0000000000000000e+00  -4.3741980114976337e-03 -1.3680282387761775e-03 0.0000000000000000e+00  -2.1662969239094271e-03 -1.3506431700412097e-03 0.0000000000000000e+00  -1.1457446063439761e-05 -1.3519818056406537e-03 0.0000000000000000e+00  2.1425931715721241e-03 -1.3719048719600553e-03 0.0000000000000000e+00  4.3480844173395998e-03 -1.4110437896820646e-03 0.0000000000000000e+00  6.6581486573377320e-03 -1.4707941827851053e-03 0.0000000000000000e+00  6.7274664692481331e-03 -7.1365944576012700e-04 0.0000000000000000e+00  6.6536565635529179e-03 4.4169466503677312e-05 0.0000000000000000e+00  4.8545095347929121e-03 1.6537861757591472e-05 0.0000000000000000e+00  3.1724264338592418e-03 3.3263431814467676e-06 0.0000000000000000e+00  1.5671856240546179e-03 -6.0626495357801862e-07 0.0000000000000000e+00  0.0000000000000000e+00 0.0000000000000000e+00 0.0000000000000000e+00  0.0000000000000000e+00 0.0000000000000000e+00 0.0000000000000000e+00  -1.1451283447556767e-03 6.8339701724609027e-05 0.0000000000000000e+00  -2.3175230834045742e-03 1.4252317646559247e-04 0.0000000000000000e+00  -3.5448752153887978e-03 2.2853351040281127e-04 0.0000000000000000e+00  -4.8557400904708703e-03 3.3262075541784524e-04 0.0000000000000000e+00  -4.9084626286269098e-03 -6.7934058897501227e-04 0.0000000000000000e+00  -4.8590841425447803e-03 -1.6911241162532930e-03 0.0000000000000000e+00  -3.1852198429211452e-03 -1.6385018121974554e-03 0.0000000000000000e+00  -1.5862952824054247e-03 -1.6104405778612696e-03 0.0000000000000000e+00  -2.5156053027544820e-05 -1.6062005757004371e-03 0.0000000000000000e+00  1.5347932057130571e-03 -1.6256321974749233e-03 0.0000000000000000e+00  3.1300938593689983e-03 -1.6691765992165883e-03 0.0000000000000000e+00  4.7977895089128053e-03 -1.7378657459805873e-03 0.0000000000000000e+00  4.8432200445183721e-03 -7.1344573656407996e-04 0.0000000000000000e+00  4.7890523918028118e-03 3.1152074910525013e-04 0.0000000000000000e+00  3.4973288642126434e-03 2.1294006616215012e-04 0.0000000000000000e+00  2.2869694297651122e-03 1.3224740349528273e-04 0.0000000000000000e+00  1.1301910069092484e-03 6.3239171351815463e-05 0.0000000000000000e+00  0.0000000000000000e+00 0.0000000000000000e+00 0.0000000000000000e+00  0.0000000000000000e+00 0.0000000000000000e+00 0.0000000000000000e+00  -6.0667665809048088e-04 1.0664168617467513e-04 0.0000000000000000e+00  -1.2276363191372390e-03 2.1972704146139553e-04 0.0000000000000000e+00  -1.8773559852115406e-03 3.4580485298751353e-04 0.0000000000000000e+00  -2.5706875247055276e-03 4.9162813521416422e-04 0.0000000000000000e+00  -2.6006626778134383e-03 -6.9118331863093354e-04 0.0000000000000000e+00  -2.5772765951970027e-03 -1.8737101084237988e-03 0.0000000000000000e+00  -1.6965466707566596e-03 -1.8107379487788942e-03 0.0000000000000000e+00  -8.5518227816537464e-04 -1.7749593986869437e-03 0.0000000000000000e+00  -3.4092675593291541e-05 -1.7657390445823063e-03 0.0000000000000000e+00  7.8556282332601800e-04 -1.7829149924065632e-03 0.0000000000000000e+00  1.6225854068731165e-03 -1.8267891233006922e-03 0.0000000000000000e+00  2.4959656047373996e-03 -1.8981155144439956e-03 0.0000000000000000e+00  2.5148429011842212e-03 -7.088708055375523