<?xml version="1.0"?>
<VTKFile type="UnstructuredGrid"  version="0.1"  >
<UnstructuredGrid>
<Piece  NumberOfPoints="589" NumberOfCells="1080">
<Points>
<DataArray  type="Float64"  NumberOfComponents="3"  format="ascii">-9 0 0  -8 0 0  -7 0 0  -6 0 0  -5 0 0  -4 0 0  -3 0 0  -2 0 0  -1 0 0  0 0 0  1 0 0  2 0 0  3 0 0  4 0 0  5 0 0  6 0 0  7 0 0  8 0 0  9 0 0  -9 2 0  -8.000006290915323 1.999990019577585 0  -7.00001321980913 1.999981310852127 0  -6.000022313276951 1.999974911737265 0  -5.000037081975152 1.999971293174939 0  -4.000021456104039 1.999978388435997 0  -3.000005408099914 1.999985352737474 0  -1.999997681731104 1.999991986669933 0  -0.9999966131067055 1.999997224784621 0  3.133297279583281e-07 1.99999948169252 0  0.9999970055934739 1.999997769524764 0  1.999997284055184 1.999992456330487 0  3.00000373693041 1.999985922115919 0  4.000017223854305 1.999978832139535 0  5.000036917983677 1.999975598593432 0  6.000022486343561 1.99997676260914 0  7.000013464029117 1.999982133116913 0  8.00000645264285 1.999990343570941 0  9 2 0  -9.000000000004983 4 0  -8.00001002980256 3.999974952945537 0  -7.000017781372616 3.99995338368783 0  -6.000021925577469 3.999938701498511 0  -5.00002275204522 3.999934160980155 0  -3.999999645264823 3.999937379266198 0  -2.999984209530977 3.999957308949033 0  -1.999980377907959 3.999983346272129 0  -0.9999866192262488 4.000004296142677 0  1.673842805016366e-06 4.000012626508921 0  0.9999897694527637 4.000005673752307 0  1.999982879562317 3.999987258239462 0  2.99998624193923 3.999962314011883 0  4.000001479757982 3.999937020722665 0  5.000024777358398 3.999927865290263 0  6.000023335228291 3.999936699696687 0  7.000018884151425 3.999952907150525 0  8.000010670023894 3.99997490396322 0  9 4 0  -9 6 0  -8.000022880888487 5.999945978047966 0  -7.000036772345156 5.999897910969271 0  -6.000034808776205 5.9998619272316 0  -5.000015005166072 5.999843920304698 0  -3.999969432937527 5.999873442834888 0  -2.999948753167546 5.999935565551286 0  -1.999957025540133 6.000000794314684 0  -0.9999776380553739 6.000037131345286 0  1.381024106922897e-06 6.000044303935799 0  0.9999823955075048 6.000032170228787 0  1.999967862363422 5.999998801038642 0  2.999962422519476 5.999942427078809 0  3.999973453713547 5.99988377387767 0  5.000013101627465 5.999854163703389 0  6.000036219867735 5.999867147241507 0  7.000039355602151 5.999900526812128 0  8.00002470971115 5.99994707037918 0  9 6 0  -9 8 0  -8.00007168116225 7.999893196823522 0  -7.00011917816616 7.999794119606118 0  -6.000119048848632 7.999713260384588 0  -5.00005118998079 7.999667907597639 0  -3.999962836703969 7.999805158935806 0  -2.999978649500622 7.99996667736713 0  -2.000011474514363 8.000045736349836 0  -1.000014259112494 8.000055171981424 0  5.337530979182414e-06 8.000057996825094 0  1.000019757043637 8.000066022317414 0  2.000013153171382 8.000032099863212 0  2.999973829835624 7.999974470130859 0  3.999960342548509 7.999832296215338 0  5.000048534656446 7.999671905902434 0  6.000129023766965 7.999716031615607 0  7.000130940993192 7.999795506614341 0  8.000078993820676 7.999893704818313 0  9 8 0  -9 10 0  -8.000217149309359 9.999809567218881 0  -7.000392014401087 9.99961754206943 0  -6.000474135631473 9.999422709850725 0  -5.00039320757785 9.999224751632633 0  -4.000253261707777 9.999667675443176 0  -3.000275283441513 10.00004882232039 0  -2.000218267450652 9.999984476141762 0  -1.000095418728046 9.999963827032609 0  -4.500791526320263e-06 9.999958767923488 0  1.000086018315186 9.999959007948641 0  2.000207089469138 9.999956028673036 0  3.000312860775946 10.000095415644 0  4.000298650822225 9.999724455703348 0  5.000461396456632 9.999235103154749 0  6.000535961727498 9.999423637887313 0  7.00043788663656 9.999615660266603 0  8.000241400580158 9.999807993674237 0  9 10 0  -9 12 0  -8.00053143593661 11.99973242534771 0  -7.001035305451024 11.99945239239281 0  -6.001480412672358 11.99914501080849 0  -5.00182799856709 11.99878953624379 0  -4.001756269940454 11.99959646894868 0  -3.001819758001654 12.00039520359008 0  -2.00123561153069 12.00030093233268 0  -1.000587748535612 12.00025110158366 0  8.363100630692292e-05 12.00024362842971 0  1.000760313586664 12.00028039094633 0  2.001426520839212 12.00037144959184 0  3.002050920824452 12.00054176802503 0  4.00197949686503 11.99964933507112 0  5.002027876965606 11.99874936678853 0  6.001632698924631 11.99911756993362 0  7.001138094029062 11.99943473944239 0  8.000583231307226 11.99972369602395 0  9 12 0  -9 14 0  -8.000955332039018 13.99970525019439 0  -7.001912594037074 13.99939686845085 0  -6.002874974440791 13.99906002162188 0  -5.003848910009164 13.99867751983968 0  -4.003858802201204 13.99961932740423 0  -3.003863435395477 14.00057290725189 0  -2.002509063240189 14.00043987303137 0  -1.001174667059197 14.0003691645416 0  0.0001507519452596356 14.00035175135136 0  1.001477544821479 14.00038484622577 0  2.002815106096069 14.00047020271259 0  3.004170475368865 14.00061239860893 0  4.004179734869455 13.99961433721744 0  5.004187713303031 13.99862217013301 0  6.003125465881903 13.99901618671455 0  7.002078348373929 13.99936700019203 0  8.001037921356223 13.99969018997625 0  9 14 0  -9 16 0  -8.001370614386627 15.99973269152252 0  -7.00276793437173 15.99945539324929 0  -6.004220938693625 15.99915793625521 0  -5.005763254380387 15.99882995365675 0  -4.005818465760155 15.99963038027095 0  -3.005765119663844 16.00042638006619 0  -2.003704950827077 16.00033024358619 0  -1.001726678104651 16.00027463908896 0  0.000212465021622015 16.00025838074895 0  1.00215286677053 16.0002807887688 0  2.004134868135494 16.00034213432882 0  3.006201328744665 16.00044343526369 0  4.0062597672616 15.99958836801928 0  5.006209275913174 15.9987324879877 0  6.004554865392135 15.99908799722063 0  7.00299011048732 15.99941002249331 0  8.001481552933205 15.99971034413064 0  9 16 0  -9 18 0  -8.001678130687713 17.99980011526408 0  -7.0033988469154 17.99959464697179 0  -6.005206932524408 17.9993781063882 0  -5.007151552404012 17.9991452179273 0  -4.007235202160357 17.99963221888785 0  -3.007153454650564 18.00011840099511 0  -2.004576276426004 18.00005909692725 0  -1.002123561887209 18.00002336332718 0  0.0002691345402509175 18.00001097352889 0  1.002663145610336 18.00002159853841 0  2.005119720899716 18.00005483884624 0  3.007703021888428 18.00011010481985 0  4.007789132737872 17.99956881503326 0  5.007707619600905 17.99902887363664 0  6.005622371622642 17.99929399244716 0  7.003675022660775 17.99954001295181 0  8.001815983323327 17.99977321882099 0  9 18 0  -9 20 0  -8.001814431743794 19.99988985948491 0  -7.003678547177851 19.9997782149218 0  -6.005643928293487 19.99966372350662 0  -5.007765956327735 19.99954535990896 0  -4.007861543845046 19.99963132812873 0  -3.007766103622022 19.99971640108026 0  -2.004953178055084 19.99969412275144 0  -1.002281978883788 19.99967918110148 0  0.0003205157532645413 19.99967197675754 0  1.002924705401849 19.99967240347191 0  2.005600982821823 19.9996798662746 0  3.008422362520978 19.99969323612802 0  4.008520165830542 19.99955890422996 0  5.008424124655571 19.99942545720436 0  6.006134901663555 19.99957645485615 0  7.004004609001115 19.99972129846139 0  8.001977089112684 19.99986177937695 0  8.99999999998507 19.99999999999595 0  -9 22 0  -8.001751185216708 21.99998560544096 0  -7.003551449867217 21.99997317054858 0  -6.005451426072218 21.99996483924303 0  -5.007504838162217 21.99996312840591 0  -4.007598422033288 21.99962661664458 0  -3.0075045901825 21.99928912354511 0  -2.004766676406204 21.99929995657226 0  -1.002167215768624 21.9993042192809 0  0.0003651390320658905 21.99930262667216 0  1.002899596621985 21.99929522412218 0  2.005505383539939 21.99928140012646 0  3.008253904370867 21.9992598738114 0  4.008348674407713 21.99955558309241 0  5.008252203703547 21.99985173443179 0  6.006008453909194 21.99988352399669 0  7.003921143158623 21.99992001635665 0  8.001935533114519 21.99995934487674 0  9 22 0  -9 24 0  -8.001490774716848 24.00007351688277 0  -7.003023717566729 24.00015171684411 0  -6.004642202209506 24.00023947508873 0  -5.006391931871375 24.00034206384415 0  -4.006472443957051 23.99961831599683 0  -3.006392304485711 23.99889366636035 0  -2.004029783671759 23.99893193668923 0  -1.001785601412826 23.99895255266247 0  0.0004014473174568274 23.99895639035577 0  1.00259094581932 23.99894359652691 0  2.004842506979226 23.99891359149409 0  3.007217425351797 23.99886506407821 0  4.007297327402414 23.99955720663325 0  5.00721209668141 24.0002495347054 0  6.005253134448274 24.0001717565316 0  7.003429017778164 24.00010736936315 0  8.001692824729245 24.00005158281077 0  9 24 0  -9 26 0  -8.001060714622534 26.00014271721095 0  -7.002151904798 26.00029204657385 0  -6.003304897610406 26.00045479745869 0  -5.004552564598417 26.00063818720717 0  -4.004611536851369 25.99960694749072 0  -3.004554240367898 25.99857497388015 0  -2.002822854529155 25.99863422345438 0  -1.001176952102607 25.99866768851438 0  0.0004281025785653341 25.99867636712919 0  1.002035851690181 25.99866049406308 0  2.00368987041411 25.9986195403969 0  3.005434894096429 25.99855221217575 0  4.005491082743305 25.99956221063897 0  5.005426047753889 26.00057219786817 0  6.003955355384422 26.0004064168034 0  7.002583334365447 26.00026032120021 0  8.001275762997816 26.00012701271622 0  9 26 0  -9 28 0  -8.000507610463375 28.00018549235325 0  -7.001030807457238 28.00037870869333 0  -6.001585657080598 28.00058757467617 0  -5.002188967287786 28.00082042519614 0  -4.002220600428793 27.99959352004374 0  -3.002192182601459 27.99836615681458 0  -2.001277243317763 27.99843931631912 0  -1.0004063848006 27.99848163306547 0  0.0004441251592726748 27.99849421113866 0  1.001297458202418 27.99847736743469 0  2.002176817277435 27.99843063218673 0  3.003106029610256 27.9983527475021 0  4.003132780830572 27.99956946236798 0  5.003094266998395 28.00078607584595 0  6.002259742582762 28.00056234827862 0  7.001477879407273 28.00036214533456 0  8.00073044959
[...]
<PointData  Vectors="f_44-2"> 
<DataArray  type="Float64"  Name="f_44-2"  NumberOfComponents="3" format="ascii">0.0000000000000000e+00 0.0000000000000000e+00 0.0000000000000000e+00  0.0000000000000000e+00 0.0000000000000000e+00 0.0000000000000000e+00  0.0000000000000000e+00 0.0000000000000000e+00 0.0000000000000000e+00  0.0000000000000000e+00 0.0000000000000000e+00 0.0000000000000000e+00  0.0000000000000000e+00 0.0000000000000000e+00 0.0000000000000000e+00  0.0000000000000000e+00 0.0000000000000000e+00 0.0000000000000000e+00  0.0000000000000000e+00 0.0000000000000000e+00 0.0000000000000000e+00  0.0000000000000000e+00 0.0000000000000000e+00 0.0000000000000000e+00  0.0000000000000000e+00 0.0000000000000000e+00 0.0000000000000000e+00  0.0000000000000000e+00 0.0000000000000000e+00 0.0000000000000000e+00  0.0000000000000000e+00 0.0000000000000000e+00 0.0000000000000000e+00  0.0000000000000000e+00 0.0000000000000000e+00 0.0000000000000000e+00  0.0000000000000000e+00 0.0000000000000000e+00 0.0000000000000000e+00  0.0000000000000000e+00 0.0000000000000000e+00 0.0000000000000000e+00  0.0000000000000000e+00 0.0000000000000000e+00 0.0000000000000000e+00  0.0000000000000000e+00 0.0000000000000000e+00 0.0000000000000000e+00  0.0000000000000000e+00 0.0000000000000000e+00 0.0000000000000000e+00  0.0000000000000000e+00 0.0000000000000000e+00 0.0000000000000000e+00  0.0000000000000000e+00 0.0000000000000000e+00 0.0000000000000000e+00  0.0000000000000000e+00 0.0000000000000000e+00 0.0000000000000000e+00  4.7010629540751268e-05 7.0222503360078709e-05 0.0000000000000000e+00  9.8007498671182281e-05 1.3154406180249310e-04 0.0000000000000000e+00  1.6311726864413632e-04 1.7671121810625723e-04 0.0000000000000000e+00  2.6612480742683195e-04 2.0244197129052596e-04 0.0000000000000000e+00  1.5587065629641647e-04 1.5159454659636318e-04 0.0000000000000000e+00  4.3629598352935259e-05 1.0214496443877964e-04 0.0000000000000000e+00  -1.0046627180063094e-05 5.5164086645894353e-05 0.0000000000000000e+00  -1.6878033315741286e-05 1.7840828830445569e-05 0.0000000000000000e+00  5.7659088018966905e-06 9.7159885401268730e-07 0.0000000000000000e+00  3.1128179144757965e-05 1.1082277341022735e-05 0.0000000000000000e+00  3.3433769995345801e-05 4.5187278474182874e-05 0.0000000000000000e+00  -4.2315900372256111e-06 8.6346979401526585e-05 0.0000000000000000e+00  -8.6171972231395704e-05 1.2828616728909422e-04 0.0000000000000000e+00  -2.0447053997180273e-04 1.3896552265375186e-04 0.0000000000000000e+00  -1.2079101927349383e-04 1.3746158905243041e-04 0.0000000000000000e+00  -7.1206319047102806e-05 1.0773931198404825e-04 0.0000000000000000e+00  -3.3974988261034039e-05 5.8784921092340812e-05 0.0000000000000000e+00  0.0000000000000000e+00 0.0000000000000000e+00 0.0000000000000000e+00  0.0000000000000000e+00 0.0000000000000000e+00 0.0000000000000000e+00  7.8074511089408030e-05 1.7604080162904036e-04 0.0000000000000000e+00  1.3956389736022253e-04 3.2769980380951551e-04 0.0000000000000000e+00  1.7464279885922167e-04 4.3116479848540008e-04 0.0000000000000000e+00  1.8498467781586498e-04 4.6391349367930234e-04 0.0000000000000000e+00  2.4060186457742133e-05 4.3775106800334493e-04 0.0000000000000000e+00  -8.2408556775977226e-05 2.9621946383484761e-04 0.0000000000000000e+00  -1.0741554788120765e-04 1.1264008023281576e-04 0.0000000000000000e+00  -6.1791519869249081e-05 -3.5523512410243968e-05 0.0000000000000000e+00  2.2169933927195118e-05 -9.6474241194963617e-05 0.0000000000000000e+00  1.0822999592525855e-04 -5.3328195359866652e-05 0.0000000000000000e+00  1.6120458796658191e-04 6.6422800158205802e-05 0.0000000000000000e+00  1.4598273008802336e-04 2.2789395074101999e-04 0.0000000000000000e+00  5.1818787187832203e-05 3.8757439478576009e-04 0.0000000000000000e+00  -9.6629679909113290e-05 4.3139168554549580e-04 0.0000000000000000e+00  -1.0520169014942751e-04 3.8779144432130150e-04 0.0000000000000000e+00  -9.2997463211888650e-05 2.9239871849165184e-04 0.0000000000000000e+00  -5.4921545634255576e-05 1.5688326021291640e-04 0.0000000000000000e+00  0.0000000000000000e+00 0.0000000000000000e+00 0.0000000000000000e+00  0.0000000000000000e+00 0.0000000000000000e+00 0.0000000000000000e+00  1.7546848357380410e-04 3.7934635041713424e-04 0.0000000000000000e+00  2.8676111522446789e-04 7.1659448555100726e-04 0.0000000000000000e+00  2.8511586331108994e-04 9.6844753857799621e-04 0.0000000000000000e+00  1.5688331680509398e-04 1.0938988062578357e-03 0.0000000000000000e+00  -1.5911151799291121e-04 8.8138454797330196e-04 0.0000000000000000e+00  -2.9997775591311671e-04 4.4220164577193352e-04 0.0000000000000000e+00  -2.3647013073683809e-04 -1.6984939416664059e-05 0.0000000000000000e+00  -8.8040929687260963e-05 -2.7085244982857904e-04 0.0000000000000000e+00  6.0436057677065410e-05 -3.2239441307524148e-04 0.0000000000000000e+00  1.9323948113584470e-04 -2.4386372300003642e-04 0.0000000000000000e+00  2.9542821855980229e-04 -2.4449670729755180e-05 0.0000000000000000e+00  3.3745270489903445e-04 3.4720020667279117e-04 0.0000000000000000e+00  2.6968578318844913e-04 7.3047368032294320e-04 0.0000000000000000e+00  8.5003132794435227e-06 9.1445600033912729e-04 0.0000000000000000e+00  -1.7271599511680169e-04 8.4525695246544285e-04 0.0000000000000000e+00  -2.1826428985036991e-04 6.3751006736031631e-04 0.0000000000000000e+00  -1.4323482824454161e-04 3.4041600298300194e-04 0.0000000000000000e+00  0.0000000000000000e+00 0.0000000000000000e+00 0.0000000000000000e+00  0.0000000000000000e+00 0.0000000000000000e+00 0.0000000000000000e+00  5.2936352124420278e-04 7.5131975577570078e-04 0.0000000000000000e+00  8.8563766967853603e-04 1.4468692024018248e-03 0.0000000000000000e+00  9.0189522962425526e-04 2.0111393698465335e-03 0.0000000000000000e+00  4.3704492018092255e-04 2.3200783509299020e-03 0.0000000000000000e+00  -1.8098273493071361e-04 1.3443586889760170e-03 0.0000000000000000e+00  -5.3163192726486794e-05 2.0164657383198251e-04 0.0000000000000000e+00  1.9085903465111191e-04 -3.4839288288679871e-04 0.0000000000000000e+00  2.1663002756495969e-04 -4.0243959430272816e-04 0.0000000000000000e+00  8.0349077757050919e-05 -4.1713501258905427e-04 0.0000000000000000e+00  -2.2552245620403638e-05 -4.7412977800109660e-04 0.0000000000000000e+00  1.9610440847585999e-05 -2.5419509902852602e-04 0.0000000000000000e+00  2.8804235432138226e-04 1.1973523585542643e-04 0.0000000000000000e+00  3.8400701590538027e-04 1.0648454516329912e-03 0.0000000000000000e+00  -2.0726818522842045e-04 2.1351940562213028e-03 0.0000000000000000e+00  -7.8275801917762557e-04 1.8566382921650652e-03 0.0000000000000000e+00  -8.2567733951530490e-04 1.3398003241188255e-03 0.0000000000000000e+00  -5.0422933229587888e-04 6.9707885420489839e-04 0.0000000000000000e+00  0.0000000000000000e+00 0.0000000000000000e+00 0.0000000000000000e+00  0.0000000000000000e+00 0.0000000000000000e+00 0.0000000000000000e+00  1.5746663021257957e-03 1.3456115442437762e-03 0.0000000000000000e+00  2.8434298298827231e-03 2.7010524004840789e-03 0.0000000000000000e+00  3.4421414013557096e-03 4.0732048413831354e-03 0.0000000000000000e+00  2.8643172427753314e-03 5.4617684592343308e-03 0.0000000000000000e+00  1.8776341533309751e-03 2.2910879440868723e-03 0.0000000000000000e+00  2.0647628929713999e-03 -4.2639329635468521e-04 0.0000000000000000e+00  1.6768389515989704e-03 7.1389544449079466e-05 0.0000000000000000e+00  8.1082103844450646e-04 2.3157559590764810e-04 0.0000000000000000e+00  1.8018364828786552e-04 2.7086480694355505e-04 0.0000000000000000e+00  -4.4203558460237147e-04 2.6515301095217901e-04 0.0000000000000000e+00  -1.2689682147398156e-03 2.7208870760837546e-04 0.0000000000000000e+00  -1.9988265540955997e-03 -7.0203633526137699e-04 0.0000000000000000e+00  -1.9004803752122506e-03 1.7834021481565815e-03 0.0000000000000000e+00  -2.9885002825958563e-03 5.0754113830084541e-03 0.0000000000000000e+00  -3.5210535092394584e-03 3.8195886774661549e-03 0.0000000000000000e+00  -2.8892840527815779e-03 2.5447559047905252e-03 0.0000000000000000e+00  -1.5955169240396182e-03 1.2706229589395305e-03 0.0000000000000000e+00  0.0000000000000000e+00 0.0000000000000000e+00 0.0000000000000000e+00  0.0000000000000000e+00 0.0000000000000000e+00 0.0000000000000000e+00  3.8391595489238282e-03 1.8989471265595218e-03 0.0000000000000000e+00  7.4742070933969344e-03 3.8856192686808223e-03 0.0000000000000000e+00  1.0675107347335875e-02 6.0650627190582240e-03 0.0000000000000000e+00  1.3156214191013966e-02 8.5839327445347835e-03 0.0000000000000000e+00  1.2653954099581878e-02 2.7706992054242520e-03 0.0000000000000000e+00  1.3141254908105211e-02 -2.9848155830177886e-03 0.0000000000000000e+00  9.1510695898310741e-03 -2.2604546948040115e-03 0.0000000000000000e+00  4.6847138016017573e-03 -1.8564294993361648e-03 0.0000000000000000e+00  3.2421353691754778e-05 -1.7557160639994202e-03 0.0000000000000000e+00  -4.6779497031899098e-03 -1.9683408256733121e-03 0.0000000000000000e+00  -9.3420635300176004e-03 -2.5612876522854403e-03 0.0000000000000000e+00  -1.3755296929535291e-02 -3.7041868971182520e-03 0.0000000000000000e+00  -1.3268809132919427e-02 2.2807641458747786e-03 0.0000000000000000e+00  -1.3565318080489063e-02 8.3162690205431863e-03 0.0000000000000000e+00  -1.0906639448440740e-02 5.8549744619636416e-03 0.0000000000000000e+00  -7.5958888254729594e-03 3.7447093923172600e-03 0.0000000000000000e+00  -3.8907584124586777e-03 1.8287647919627838e-03 0.0000000000000000e+00  0.0000000000000000e+00 0.0000000000000000e+00 0.0000000000000000e+00  0.0000000000000000e+00 0.0000000000000000e+00 0.0000000000000000e+00  6.9109496091264641e-03 2.0995205586157289e-03 0.0000000000000000e+00  1.3826912263661088e-02 4.2958749938049514e-03 0.0000000000000000e+00  2.0762150390458534e-02 6.6944968227469022e-03 0.0000000000000000e+00  2.7753083229590178e-02 9.4177585852251323e-03 0.0000000000000000e+00  2.7834013355775383e-02 2.5828550304442376e-03 0.0000000000000000e+00  2.7905852769579229e-02 -4.3391611584749114e-03 0.0000000000000000e+00  1.8547271149729608e-02 -3.3143801104072133e-03 0.0000000000000000e+00  9.3098795502221977e-03 -2.7342237148238863e-03 0.0000000000000000e+00  1.1519171947965186e-04 -2.5317293182020987e-03 0.0000000000000000e+00  -9.1122711053318092e-03 -2.6839559108340666e-03 0.0000000000000000e+00  -1.8444139446394638e-02 -3.1997505332587539e-03 0.0000000000000000e+00  -2.7939146298552663e-02 -4.1076222794849968e-03 0.0000000000000000e+00  -2.8005859768249142e-02 2.5128405484423663e-03 0.0000000000000000e+00  -2.8022726013502627e-02 9.0902533108055614e-03 0.0000000000000000e+00  -2.0878588317682217e-02 6.4790720101290233e-03 0.0000000000000000e+00  -1.3867184613010885e-02 4.1630968925658813e-03 0.0000000000000000e+00  -6.9205231059926127e-03 2.0358425591449065e-03 0.0000000000000000e+00  0.0000000000000000e+00 0.0000000000000000e+00 0.0000000000000000e+00  0.0000000000000000e+00 0.0000000000000000e+00 0.0000000000000000e+00  9.9501740484384035e-03 1.9115099032687162e-03 0.0000000000000000e+00  2.0081895788898164e-02 3.8944193724692751e-03 0.0000000000000000e+00  3.0593216831176103e-02 6.0213942873149030e-03 0.0000000000000000e+00  4.1714462197759455e-02 8.3665875784167849e-03 0.0000000000000000e+00  4.2115840005796934e-02 2.4801519464992829e-03 0.0000000000000000e+00  4.1770143303886988e-02 -3.3781583495417775e-03 0.0000000000000000e+00  2.7491142408553323e-02 -2.5998625653334243e-03 0.0000000000000000e+00  1.3778457702404332e-02 -2.1094724130663262e-03 0.0000000000000000e+00  3.2855604681411094e-04 -1.8961730429993896e-03 0.0000000000000000e+00  -1.3144048202475446e-02 -1.9524456094219384e-03 0.0000000000000000e+00  -2.6925463141310356e-02 -2.2770776094338621e-03 0.0000000000000000e+00  -4.1320780462505577e-02 -2.8737219270219862e-03 0.0000000000000000e+00  -4.1724328280344475e-02 2.6812118812286124e-03 0.0000000000000000e+00  -4.1346329171350366e-02 8.2378845405606284e-03 0.0000000000000000e+00  -3.0282457229571041e-02 5.9174210945204114e-03 0.0000000000000000e+00  -1.9857015125501976e-02 3.8231640042716841e-03 0.0000000000000000e+00  -9.8322735110843371e-03 1.8755418076952383e-03 0.0000000000000000e+00  0.0000000000000000e+00 0.0000000000000000e+00 0.0000000000000000e+00  0.0000000000000000e+00 0.0000000000000000e+00 0.0000000000000000e+00  1.2249754482737697e-02 1.4376229697948201e-03 0.0000000000000000e+00  2.4794917606845844e-02 2.9155272234597180e-03 0.0000000000000000e+00  3.7946492063697032e-02 4.4732708715806632e-03 0.0000000000000000e+00  5.2046081877030081e-02 6.1489764913835775e-03 0.0000000000000000e+00  5.2647062056210156e-02 2.4394457705016284e-03 0.0000000000000000e+00  5.2094279308840967e-02 -1.2678586148922959e-03 0.0000000000000000e+00  3.4217735781236394e-02 -7.4264102966219148e-04 0.0000000000000000e+00  1.7215387960113803e-02 -3.8495544758995184e-04 0.0000000000000000e+00  6.3351881246613009e-04 -1.9082276691505468e-04 0.0000000000000000e+00  -1.5958196359692665e-02 -1.5579831905946487e-04 0.0000000000000000e+00  -3.2989909497262243e-02 -2.7430679510517721e-04 0.0000000000000000e+00  -5.0912576140259097e-02 -5.3911556975057100e-04 0.0000000000000000e+00  -5.1503219767029623e-02 2.7999708231780901e-03 0.0000000000000000e+00  -5.0922111559859186e-02 6.1262771665231775e-03 0.0000000000000000e+00  -3.7090233390729456e-02 4.4476862673536923e-03 0.0000000000000000e+00  -2.4217362164590597e-02 2.8947373327963201e-03 0.0000000000000000e+00  -1.1958926753045260e-02 1.4262059573359595e-03 0.0000000000000000e+00  0.0000000000000000e+00 0.0000000000000000e+00 0.0000000000000000e+00  0.0000000000000000e+00 0.0000000000000000e+00 0.0000000000000000e+00  1.3355427674723254e-02 8.0280200274184703e-04 0.0000000000000000e+00  2.7058002282538452e-02 1.6169325398652200e-03 0.0000000000000000e+00  4.1468118799186229e-02 2.4525313575669851e-03 0.0000000000000000e+00  5.6972527125740517e-02 3.3175028049356866e-03 0.0000000000000000e+00  5.7657550623989987e-02 2.4144287366077077e-03 0.0000000000000000e+00  5.7002453540829917e-02 1.5149315683454416e-03 0.0000000000000000e+00  3.7494615791683741e-02 1.7786272465960715e-03 0.0000000000000000e+00  1.8990473080906161e-02 1.9888368450542630e-03 0.0000000000000000e+00  9.7883170438502936e-04 2.1446503922005989e-03 0.0000000000000000e+00  -1.7032387428783446e-02 2.2488815277317276e-03 0.0000000000000000e+00  -3.5534840566392729e-02 2.3080114913373415e-03 0.0000000000000000e+00  -5.5038400999433003e-02 2.3325088048273251e-03 0.0000000000000000e+00  -5.5703538375843291e-02 2.8484779684465303e-03 0.0000000000000000e+00  -5.5033254535942523e-02 3.3558144860352792e-03 0.0000000000000000e+00  -4.0018163554826403e-02 2.4744563177173332e-03 0.0000000000000000e+00  -2.6093251970143689e-02 1.6282710928896887e-03 0.0000000000000000e+00  -1.2873589890033035e-02 8.0749454619722381e-04 0.0000000000000000e+00  -1.0957359676857641e-09 8.2915080323425215e-11 0.0000000000000000e+00  0.0000000000000000e+00 0.0000000000000000e+00 0.0000000000000000e+00  1.3061141530818724e-02 1.2288661817335712e-04 0.0000000000000000e+00  2.6466716414805788e-02 2.3249671651951102e-04 0.0000000000000000e+00  4.0572067090453919e-02 3.1422267436456784e-04 0.0000000000000000e+00  5.5753516018884008e-02 3.5077235772151312e-04 0.0000000000000000e+00  5.6426604614089770e-02 2.4172091667617394e-03 0.0000000000000000e+00  5.5779313061449676e-02 4.4889200621878698e-03 0.0000000000000000e+00  3.6804497430955693e-02 4.5117476565999940e-03 0.0000000000000000e+00  1.8818073410750220e-02 4.5779532357322541e-03 0.0000000000000000e+00  1.3225497418447004e-03 4.6841864563774097e-03 0.0000000000000000e+00  -1.6163897492121011e-02 4.8318733536996906e-03 0.0000000000000000e+00  -3.4122669835722770e-02 5.0271458458044553e-03 0.0000000000000000e+00  -5.3050001237130905e-02 5.2809385488697290e-03 0.0000000000000000e+00  -5.3685816867165649e-02 2.8527827189418248e-03 0.0000000000000000e+00  -5.3021395164036728e-02 4.2020145797693137e-04 0.0000000000000000e+00  -3.8542680275159315e-02 3.6049504231579790e-04 0.0000000000000000e+00  -2.5122979791753659e-02 2.6059920380419214e-04 0.0000000000000000e+00  -1.2391915349003899e-02 1.3610872443754402e-04 0.0000000000000000e+00  0.0000000000000000e+00 0.0000000000000000e+00 0.0000000000000000e+00  0.0000000000000000e+00 0.0000000000000000e+00 0.0000000000000000e+00  1.1377406727362958e-02 -5.0394411604016173e-04 0.0000000000000000e+00  2.3051549538893094e-02 -1.0404037590051849e-03 0.0000000000000000e+00  3.5330416675859767e-02 -1.6433010924447771e-03 0.0000000000000000e+00  4.8532858432784515e-02 -2.3494803918574238e-03 0.0000000000000000e+00  4.9118522096366746e-02 2.4513532657153662e-03 0.0000000000000000e+00  4.8565881640719254e-02 7.2576565336754332e-03 0.0000000000000000e+00  3.2207135503555272e-02 7.0731427401061657e-03 0.0000000000000000e+00  1.6703451328225757e-02 7.0086512609121195e-03 0.0000000000000000e+00  1.6288743470704763e-03 7.0596252615961006e-03 0.0000000000000000e+00  -1.3429768256542728e-02 7.2263766557811044e-03 0.0000000000000000e+00  -2.8885212633364209e-02 7.5143256847300744e-03 0.0000000000000000e+00  -4.5161490191605265e-02 7.9340166193689540e-03 0.0000000000000000e+00  -4.5685372016181960e-02 2.8299364111280139e-03 0.0000000000000000e+00  -4.5104419865057428e-02 -2.2760408907330945e-03 0.0000000000000000e+00  -3.2790581825965025e-02 -1.5924420477523907e-03 0.0000000000000000e+00  -2.1374027806846482e-02 -1.0084867702576717e-03 0.0000000000000000e+00  -1.0542680433356329e-02 -4.8857840075135553e-04 0.0000000000000000e+00  0.0000000000000000e+00 0.0000000000000000e+00 0.0000000000000000e+00  0.0000000000000000e+00 0.0000000000000000e+00 0.0000000000000000e+00  8.4910935040757567e-03 -1.0008005592273032e-03 0.0000000000000000e+00  1.7198910566309036e-02 -2.0475806189210431e-03 0.0000000000000000e+00  2.6346556289194484e-02 -3.1876726583159455e-03 0.0000000000000000e+00  3.6167159383604333e-02 -4.4722902043604932e-03 0.0000000000000000e+00  3.6607268681350995e-02 2.5167359584404251e-03 0.0000000000000000e+00  3.6214108331835568e-02 9.5101674554525922e-03 0.0000000000000000e+00  2.4238066516381308e-02 9.1577320077616403e-03 0.0000000000000000e+00  1.2892620617760267e-02 8.9816324746210888e-03 0.0000000000000000e+00  1.8695602620301397e-03 8.9761606420835274e-03 0.0000000000000000e+00  -9.1326409219546784e-03 9.1404162833633364e-03 0.0000000000000000e+00  -2.0413609503825120e-02 9.4790651040692828e-03 0.0000000000000000e+00  -3.2282001533960179e-02 1.0001928155869427e-02 0.0000000000000000e+00  -3.2633969367348761e-02 2.7943821904907562e-03 0.0000000000000000e+00  -3.2195805010958874e-02 -4.4136487835749229e-03 0.0000000000000000e+00  -2.3408957663626787e-02 -3.1468076042121982e-03 0.0000000000000000e+00  -1.5259747273929763e-02 -2.0214893678107576e-03 0.0000000000000000e+00  -7.5271293411548340e-03 -9.8810259716297275e-04 0.0000000000000000e+00  0.0000000000000000e+00 0.0000000000000000e+00 0.0000000000000000e+00  0.0000000000000000e+00 0.0000000000000000e+00 0.0000000000000000e+00  4.7223571498942879e-03 -1.3140160719575010e-03 0.0000000000000000e+00  9.5586909422918868e-03 -2.6816646628482215e-03 0.0000000000000000e+00  1.4626827171039802e-02 -4.1579914898781040e-03 0.0000000000000000e+00  2.0049351772292098e-02 -5.8009560387447638e-03 0.0000000000000000e+00  2.0303045557884959e-02 2.6067285925817437e-03 0.0000000000000000e+00  2.0110751704256906e-02 1.1016338481756123e-02 0.0000000000000000e+00  1.3788993304663788e-02 1.0541172084182742e-02 0.0000000000000000e+00  7.8144020441147776e-03 1.0277462843102204e-02 0.0000000000000000e+00  2.0233257848531554e-03 1.0218220548039435e-02 0.0000000000000000e+00  -3.7432514344196352e-03 1.0361726549391376e-02 0.0000000000000000e+00  -9.6438479275253453e-03 1.0711671297205851e-02 0.0000000000000000e+00  -1.5840746143896498e-02 1.1277157826546574e-02 0.0000000000000000e+00  -1.5984396479993078e-02 2.7542106918173070e-03 0.0000000000000000e+00  -1.5731172962397972e-02 -5.7692287906159247e-03 0.0000000000000000e+00  -1.1435088597211365e-02 -4.1353865116379365e-03