<?xml version="1.0"?>
<VTKFile type="UnstructuredGrid"  version="0.1"  >
<UnstructuredGrid>
<Piece  NumberOfPoints="589" NumberOfCells="1080">
<Points>
<DataArray  type="Float64"  NumberOfComponents="3"  format="ascii">-9 0 0  -8 0 0  -7 0 0  -6 0 0  -5 0 0  -4 0 0  -3 0 0  -2 0 0  -1 0 0  0 0 0  1 0 0  2 0 0  3 0 0  4 0 0  5 0 0  6 0 0  7 0 0  8 0 0  9 0 0  -9 2 0  -8.000004116888592 1.999993980612483 0  -7.000008631081377 1.999988688858319 0  -6.000014468266285 1.999984714086284 0  -5.000023737794958 1.999982310167078 0  -4.000014245677 1.999986834050444 0  -3.000004466302464 1.999991043603843 0  -1.999999646755912 1.999994960806573 0  -0.9999987363157744 1.999998058044679 0  -2.716111143232192e-07 1.999999429011267 0  0.9999979994352634 1.999998527470779 0  1.999998256726659 1.999995584922555 0  3.000001959988473 1.999991981425213 0  4.000009547137958 1.999988157652039 0  5.000020480025952 1.99998670854629 0  6.000012304833144 1.99998722434988 0  7.000007294972131 1.999990130681757 0  8.000003477592038 1.999994653646145 0  9 2 0  -9 4 0  -8.000006644509286 3.999985050894034 0  -7.000011970199212 3.999972109940073 0  -6.000015207130689 3.999963144843443 0  -5.000016515405643 3.999960032963106 0  -4.000002800822363 3.999962162143558 0  -2.999993552178116 3.999973910008574 0  -1.999991019226051 3.999989177777683 0  -0.9999943144558033 4.000001458426196 0  -7.895350442815155e-07 4.000006445968628 0  0.9999925821699039 4.000002691134172 0  1.999988764560642 3.999992431692763 0  2.999990714918199 3.999978548131568 0  3.999999323230287 3.999964656412104 0  5.000012421449176 3.999960223069368 0  6.000011948293383 3.999964886711378 0  7.000009819970414 3.999973795039891 0  8.000005595952079 3.999986013949381 0  9 4 0  -9 6 0  -8.00001444715336 5.999968089544018 0  -7.000023664332446 5.999939628492363 0  -6.000023660635529 5.999918163594651 0  -5.000013293183478 5.999907093271093 0  -3.999986701938337 5.999924500832459 0  -2.999974548788815 5.999960745016843 0  -1.999979197806662 5.999998713141378 0  -0.9999909381948546 6.000019818315735 0  -2.797672497932856e-06 6.000024107082504 0  0.9999865834082659 6.000017372828339 0  1.999978540819367 5.999998686183846 0  2.999975593794037 5.999967131374265 0  3.999981892547013 5.99993447836044 0  5.000004383763034 5.999918481437714 0  6.000018212411752 5.999925571141609 0  7.000020727497747 5.999944218008017 0  8.000013201674598 5.999970306575684 0  9 6 0  -9 8 0  -8.000043166727668 7.999937335050954 0  -7.000072240283187 7.999879167231305 0  -6.000073568212651 7.999831608771091 0  -5.000035473378477 7.999804736250764 0  -3.999984129300857 7.999884786346226 0  -2.999993564853096 7.999978837416633 0  -2.000012805724592 8.000024644559145 0  -1.000014432398855 8.000029827495016 0  -2.949760898044556e-06 8.000031319698881 0  1.000005710794515 8.000035860607737 0  2.000002366401707 8.000016961434172 0  2.999980434847713 7.999984749754293 0  3.999973183702842 7.999904967248858 0  5.000023271370892 7.999814995254536 0  6.000069727402212 7.999840033431823 0  7.000071794808855 7.99988487913902 0  8.000043507506689 7.999940183526423 0  9 8 0  -9 10 0  -8.000128236458874 9.999888610203584 0  -7.000231775064904 9.999776296626369 0  -6.000281143991872 9.999662356511555 0  -5.00023531422649 9.999546602155196 0  -4.000153874513263 9.999805061733319 0  -3.00016716890244 10.00002735716768 0  -2.000134207040767 9.999989022058143 0  -1.000062750561704 9.999976726908107 0  -1.01831605659527e-05 9.999973736687069 0  1.000041879655382 9.999973978359488 0  2.000111001735897 9.999972655242681 0  3.00017205498201 10.00005165011277 0  4.000164850220076 9.999843205051519 0  5.000256421601247 9.999568328303907 0  6.000298749450795 9.999675302145212 0  7.000244251092521 9.999783725955462 0  8.000134674647164 9.999892025061968 0  9 10 0  -9 12 0  -8.00031199320034 11.9998436192589 0  -7.000607818254434 11.9996799975754 0  -6.000869183557961 11.99950047509429 0  -5.001073429357162 11.99929297024174 0  -4.00103157778258 11.99976444653943 0  -3.001069110653295 12.00023130806012 0  -2.000737059394331 12.00017451307182 0  -1.000367218241612 12.000143474702 0  1.70667765615507e-05 12.00013688846786 0  1.000405438640674 12.00015568571147 0  2.000789235326589 12.00020546759362 0  3.001151335719345 12.00030029363409 0  4.001112258314167 11.99980081451922 0  5.001138642014777 11.99929730741763 0  6.000914843871792 11.99950485475346 0  7.000636903446853 11.99968312306551 0  8.000326163465711 11.99984519516934 0  9 12 0  -9 14 0  -8.00056020689466 13.99982763594567 0  -7.00112135544309 13.99964737759665 0  -6.001685111226734 13.99945063393767 0  -5.0022550748092 13.99922744974211 0  -4.002260569972057 13.99977905486923 0  -3.002263875507588 14.00033766104291 0  -2.001491476859281 14.00025705824558 0  -1.000729641396941 14.00021248508645 0  2.80147339109998e-05 14.00019856971115 0  1.000787606587104 14.00021353700823 0  2.00155484349564 14.00025821749614 0  3.002334255347068 14.00033505892723 0  4.002340991022168 13.9997815593266 0  5.002344430434658 13.99923154594557 0  6.001746997230348 13.99945169026326 0  7.001160455514143 13.999647404628 0  8.000579160226353 13.99982748885443 0  9 14 0  -9 16 0  -8.000804359554305 15.99984325900979 0  -7.001623979113424 15.99968076057097 0  -6.00247542810457 15.99950664761951 0  -5.003378000624711 15.99931496487869 0  -4.003409689953338 15.99978658242458 0  -3.003379458362245 16.00025568841243 0  -2.00220439930528 16.00019571975937 0  -1.001075681759054 16.00015905326086 0  3.122781433015121e-05 16.00014489051541 0  1.001139540054043 16.00015270295561 0  2.002272486351767 16.00018249031836 0  3.003454786142864 16.00023466365842 0  4.0034890538891 15.99976741563313 0  5.003459617615937 15.99929978581432 0  6.00253472341233 15.99949635819769 0  7.001662500502849 15.9996742856184 0  8.000823305946026 15.99984011631891 0  9 16 0  -9 18 0  -8.00098716322471 17.99988191947084 0  -7.001998727028458 17.99976063208552 0  -6.003060357911602 17.99963298951638 0  -5.00420026278139 17.99949598148683 0  -4.004248382702666 17.9997883956026 0  -3.004201895362332 18.00008041660933 0  -2.002732922947454 18.00004136497305 0  -1.001334945766046 18.00001580587452 0  2.880842700373139e-05 18.00000350751796 0  1.00139334210184 18.00000416154975 0  2.002793609873984 18.00001740312801 0  3.004266217930129 18.00004274134139 0  4.004315554405158 17.9997566529034 0  5.004268913393443 17.99947139891289 0  6.003110782708259 17.99961567762932 0  7.002031816227494 17.9997495975117 0  8.00100354593609 17.99987654774027 0  9 18 0  -9 20 0  -8.001072076836866 19.99993340240158 0  -7.002172638133507 19.99986593150695 0  -6.003331258107381 19.99979680933579 0  -5.004579694454677 19.99972544943175 0  -4.004634700012532 19.99978835835112 0  -3.004580369491479 19.99985086956885 0  -2.00297855490775 19.99983318164896 0  -1.001457838434162 19.99981966389514 0  2.324605825371733e-05 19.99981046031668 0  1.001504671346378 19.99980541030262 0  2.003026387093897 19.99980405905536 0  3.004629795335699 19.99980563141186 0  4.004685126824262 19.99975105741091 0  5.004630759013076 19.99969708056542 0  6.003369177055043 19.9997764520907 0  7.002197728685665 19.9998527973838 0  8.001084563748174 19.99992696616962 0  8.999999999992632 19.99999999999844 0  -9 22 0  -8.001042787188865 21.99998837278416 0  -7.002113750177969 21.99997783437739 0  -6.003241948868981 21.99996958056456 0  -5.004458208499257 21.99996502310241 0  -4.004512058634226 21.99978604124092 0  -3.004458543048177 21.99960665647236 0  -2.002900896740419 21.99960836460808 0  -1.001422724183176 21.99960631620929 0  1.631665492978394e-05 21.99960084987004 0  1.001455350738175 21.99959191084432 0  2.002933484319012 21.99957905845238 0  3.004491004049383 21.99956145877903 0  4.004544129535259 21.99974903142186 0  5.004490068598638 21.99993699032791 0  6.003266068335013 21.99994932787058 0  7.002129926001468 21.99996469764403 0  8.001050901107137 21.99998191368105 0  9 22 0  -9 24 0  -8.000900522738807 24.00003898781912 0  -7.001825344225168 24.00008059816332 0  -6.002799439248861 24.00012756360744 0  -5.003849108393037 24.00018283982892 0  -4.003895465454689 23.99978180406515 0  -3.00384953224893 23.99938043918372 0  -2.002506411644208 23.99939853071168 0  -1.001231576523548 23.99940659954709 0  9.438554141752154e-06 23.99940508881955 0  1.001250176522304 23.99939402019737 0  2.00252416325011 23.99937299574917 0  3.003865813500307 23.9993411948924 0  4.003910241794914 23.99974983636508 0  5.003863070299087 24.00015874921256 0  6.002810597938716 24.00011006882933 0  7.001833100512449 24.00006920815971 0  8.000904492407065 24.00003337481615 0  9 24 0  -9 26 0  -8.00066075365598 26.00007911803697 0  -7.001339237337461 26.00016194545137 0  -6.002053646633813 26.00025230251644 0  -5.002823060305655 26.0003542354301 0  -4.002857132369674 25.99977608392043 0  -3.002823902063534 25.99919769812883 0  -2.001839812009026 25.99922869150806 0  -1.000905614499634 25.99924510420447 0  3.712412319329197e-06 25.99924746093437 0  1.000912564240505 25.9992358514787 0  2.001845319220067 25.99920993237621 0  3.002826946667164 25.99916892489408 0  4.002857872924923 25.99975273072949 0  5.002822551917574 26.00033670281774 0  6.00205430172289 26.0002395319536 0  7.001340156435 26.00015361227151 0  8.000661354324357 26.00007500556231 0  9 26 0  -9 28 0  -8.000349707779273 28.00010441692998 0  -7.000708776382855 28.00021317752853 0  -6.001086818154183 28.00033073724569 0  -5.001493881745046 28.00046177708187 0  -4.001512443151311 27.99976945339073 0  -3.00149533141553 27.9990770234015 0  -2.000974647802409 27.99911707344185 0  -1.0004806254337 27.99913973047501 0  -6.824072782775635e-08 27.99914559163854 0  1.000479889724826 27.9991348130488 0  2.00097209571244 27.99910711005992 0  3.001489689447782 27.99906175655673 0  4.001504017154022 27.99975710274451 0  5.001483952037078 28.00045254404825 0  6.001080628991956 28.00032399868747 0  7.000705238388819 28.00020877371951 0  8.000348112173736 28.000
[...]
<PointData  Vectors="f_44-2"> 
<DataArray  type="Float64"  Name="f_44-2"  NumberOfComponents="3" format="ascii">0.0000000000000000e+00 0.0000000000000000e+00 0.0000000000000000e+00  0.0000000000000000e+00 0.0000000000000000e+00 0.0000000000000000e+00  0.0000000000000000e+00 0.0000000000000000e+00 0.0000000000000000e+00  0.0000000000000000e+00 0.0000000000000000e+00 0.0000000000000000e+00  0.0000000000000000e+00 0.0000000000000000e+00 0.0000000000000000e+00  0.0000000000000000e+00 0.0000000000000000e+00 0.0000000000000000e+00  0.0000000000000000e+00 0.0000000000000000e+00 0.0000000000000000e+00  0.0000000000000000e+00 0.0000000000000000e+00 0.0000000000000000e+00  0.0000000000000000e+00 0.0000000000000000e+00 0.0000000000000000e+00  0.0000000000000000e+00 0.0000000000000000e+00 0.0000000000000000e+00  0.0000000000000000e+00 0.0000000000000000e+00 0.0000000000000000e+00  0.0000000000000000e+00 0.0000000000000000e+00 0.0000000000000000e+00  0.0000000000000000e+00 0.0000000000000000e+00 0.0000000000000000e+00  0.0000000000000000e+00 0.0000000000000000e+00 0.0000000000000000e+00  0.0000000000000000e+00 0.0000000000000000e+00 0.0000000000000000e+00  0.0000000000000000e+00 0.0000000000000000e+00 0.0000000000000000e+00  0.0000000000000000e+00 0.0000000000000000e+00 0.0000000000000000e+00  0.0000000000000000e+00 0.0000000000000000e+00 0.0000000000000000e+00  0.0000000000000000e+00 0.0000000000000000e+00 0.0000000000000000e+00  0.0000000000000000e+00 0.0000000000000000e+00 0.0000000000000000e+00  -4.0516676652703923e-05 -6.7360629714397833e-05 0.0000000000000000e+00  -8.4330702681079095e-05 -1.2548244973820295e-04 0.0000000000000000e+00  -1.4067752586782294e-04 -1.6674901676528228e-04 0.0000000000000000e+00  -2.3190491515661808e-04 -1.8744288924832139e-04 0.0000000000000000e+00  -1.2717129663352634e-04 -1.4241986466624693e-04 0.0000000000000000e+00  -2.1898353091534228e-05 -9.4838535888645066e-05 0.0000000000000000e+00  2.6084369648216143e-05 -4.8029960173816646e-05 0.0000000000000000e+00  2.7164536851960252e-05 -1.0822283558925632e-05 0.0000000000000000e+00  -1.1801700395540764e-06 5.7082446522178870e-06 0.0000000000000000e+00  -3.1747708052632631e-05 -5.3691048112140035e-06 0.0000000000000000e+00  -3.8100185240928239e-05 -4.1155282656913285e-05 0.0000000000000000e+00  -2.8197632771469219e-06 -8.4331513135028395e-05 0.0000000000000000e+00  7.8814404134275288e-05 -1.2877941403841391e-04 0.0000000000000000e+00  1.9883208230161043e-04 -1.4216508345309671e-04 0.0000000000000000e+00  1.1874625634487208e-04 -1.4086253418108745e-04 0.0000000000000000e+00  7.0818192648086189e-05 -1.1050552550528232e-04 0.0000000000000000e+00  3.4067331361246009e-05 -6.0323649647673247e-05 0.0000000000000000e+00  0.0000000000000000e+00 0.0000000000000000e+00 0.0000000000000000e+00  0.0000000000000000e+00 0.0000000000000000e+00 0.0000000000000000e+00  -6.7842919503854031e-05 -1.7167178178383613e-04 0.0000000000000000e+00  -1.1853055842586423e-04 -3.1838241699682138e-04 0.0000000000000000e+00  -1.4183252646559870e-04 -4.1578689378484515e-04 0.0000000000000000e+00  -1.3942809029712496e-04 -4.4092343037821621e-04 0.0000000000000000e+00  1.8407426291227316e-05 -4.1670965693237647e-04 0.0000000000000000e+00  1.2067865079794034e-04 -2.7487952536826978e-04 0.0000000000000000e+00  1.3961916086347741e-04 -9.0389825449396354e-05 0.0000000000000000e+00  8.6280004346078816e-05 5.8741947747972454e-05 0.0000000000000000e+00  -6.0188579100868362e-06 1.1917214899014425e-04 0.0000000000000000e+00  -1.0007344800552604e-04 7.2795531122508722e-05 0.0000000000000000e+00  -1.5954365828803593e-04 -5.2564771075374652e-05 0.0000000000000000e+00  -1.4796511324218178e-04 -2.2157931591009299e-04 0.0000000000000000e+00  -5.3729889687516726e-05 -3.9041634363811279e-04 0.0000000000000000e+00  9.8230573415059521e-05 -4.4222066957331563e-04 0.0000000000000000e+00  1.0886113084954043e-04 -3.9793992495304708e-04 0.0000000000000000e+00  9.6926707495668713e-05 -3.0030566119681080e-04 0.0000000000000000e+00  5.7398827396309786e-05 -1.6120933642574899e-04 0.0000000000000000e+00  0.0000000000000000e+00 0.0000000000000000e+00 0.0000000000000000e+00  0.0000000000000000e+00 0.0000000000000000e+00 0.0000000000000000e+00  -1.6378399381092413e-04 -3.7580370594283215e-04 0.0000000000000000e+00  -2.6227234804601884e-04 -7.0848486270641629e-04 0.0000000000000000e+00  -2.4581257360962159e-04 -9.5387492186607974e-04 0.0000000000000000e+00  -1.0042343700363727e-04 -1.0700079588285012e-03 0.0000000000000000e+00  2.1697455649604395e-04 -8.5578693014256224e-04 0.0000000000000000e+00  3.5606596743033671e-04 -4.1077397740669152e-04 0.0000000000000000e+00  2.8674052274550531e-04 5.5340101932261733e-05 0.0000000000000000e+00  1.2996431326223274e-04 3.1361133703528557e-04 0.0000000000000000e+00  -2.7987182793280375e-05 3.6496703390960131e-04 0.0000000000000000e+00  -1.7089251699793336e-04 2.8235754441559578e-04 0.0000000000000000e+00  -2.8252762252354348e-04 5.2821047148428256e-05 0.0000000000000000e+00  -3.3059714528438236e-04 -3.3604991330765964e-04 0.0000000000000000e+00  -2.6338833734556607e-04 -7.3873285754641482e-04 0.0000000000000000e+00  4.4576365103351006e-06 -9.3718196376474893e-04 0.0000000000000000e+00  1.8923499476887975e-04 -8.6841094909018244e-04 0.0000000000000000e+00  2.3340237002393821e-04 -6.5593095518087395e-04 0.0000000000000000e+00  1.5220476968477630e-04 -3.5052537568402807e-04 0.0000000000000000e+00  0.0000000000000000e+00 0.0000000000000000e+00 0.0000000000000000e+00  0.0000000000000000e+00 0.0000000000000000e+00 0.0000000000000000e+00  -5.2077921256125741e-04 -7.5231449159402094e-04 0.0000000000000000e+00  -8.6576303911497111e-04 -1.4476317723755240e-03 0.0000000000000000e+00  -8.6548524206681086e-04 -2.0088724262705636e-03 0.0000000000000000e+00  -3.7693932173183195e-04 -2.3096491824750862e-03 0.0000000000000000e+00  2.5072912182337880e-04 -1.3206843601494766e-03 0.0000000000000000e+00  1.2120602984774409e-04 -1.5958451295666436e-04 0.0000000000000000e+00  -1.2841098330720061e-04 4.0259741155311270e-04 0.0000000000000000e+00  -1.5891060816977928e-04 4.6137995534338219e-04 0.0000000000000000e+00  -2.5891051795621919e-05 4.7806806576426009e-04 0.0000000000000000e+00  7.1309768770222074e-05 5.3680098811971771e-04 0.0000000000000000e+00  2.0366223010973235e-05 3.0449189561603516e-04 0.0000000000000000e+00  -2.6387077541813279e-04 -8.8292465354112803e-05 0.0000000000000000e+00  -3.6997667497131744e-04 -1.0762136186685180e-03 0.0000000000000000e+00  2.3954144686977029e-04 -2.1939937488062258e-03 0.0000000000000000e+00  8.3196411735152501e-04 -1.9135534133754952e-03 0.0000000000000000e+00  8.7123937126499932e-04 -1.3831336671670819e-03 0.0000000000000000e+00  5.3095590222204767e-04 -7.2022704302391227e-04 0.0000000000000000e+00  0.0000000000000000e+00 0.0000000000000000e+00 0.0000000000000000e+00  0.0000000000000000e+00 0.0000000000000000e+00 0.0000000000000000e+00  -1.5803848698349246e-03 -1.3563557060297373e-03 0.0000000000000000e+00  -2.8497133984651986e-03 -2.7223743419758765e-03 0.0000000000000000e+00  -3.4376521224283433e-03 -4.1045524415673157e-03 0.0000000000000000e+00  -2.8295984109993921e-03 -5.5018319217997411e-03 0.0000000000000000e+00  -1.8233730235213623e-03 -2.2818905304618567e-03 0.0000000000000000e+00  -2.0129583552164231e-03 4.8193408308576060e-04 0.0000000000000000e+00  -1.6257454799250488e-03 -1.3005063141205624e-05 0.0000000000000000e+00  -7.5167980605111279e-04 -1.7184913715021099e-04 0.0000000000000000e+00  -1.1345517129127892e-04 -2.1075817194870396e-04 0.0000000000000000e+00  5.1869689368856664e-04 -2.0622253794645018e-04 0.0000000000000000e+00  1.3653026536523051e-03 -2.1815334410392597e-04 0.0000000000000000e+00  2.1000683358016092e-03 7.8920391166262737e-04 0.0000000000000000e+00  1.9868472516387753e-03 -1.8097305966797096e-03 0.0000000000000000e+00  3.1261716629710145e-03 -5.2493715838786625e-03 0.0000000000000000e+00  3.6860692518098132e-03 -3.9576816760724404e-03 0.0000000000000000e+00  3.0265466389170271e-03 -2.6397657294190951e-03 0.0000000000000000e+00  1.6719005631789534e-03 -1.3188840115122779e-03 0.0000000000000000e+00  0.0000000000000000e+00 0.0000000000000000e+00 0.0000000000000000e+00  0.0000000000000000e+00 0.0000000000000000e+00 0.0000000000000000e+00  -3.8815500664495396e-03 -1.9207569024619999e-03 0.0000000000000000e+00  -7.5548667319232585e-03 -3.9308077116471472e-03 0.0000000000000000e+00  -1.0784598076762464e-02 -6.1369376892900359e-03 0.0000000000000000e+00  -1.3278431682371777e-02 -8.6880766773764651e-03 0.0000000000000000e+00  -1.2754363426839818e-02 -2.7713568450849720e-03 0.0000000000000000e+00  -1.3241429974374882e-02 3.0866096760440915e-03 0.0000000000000000e+00  -9.1325296853952270e-03 2.3737083696390902e-03 0.0000000000000000e+00  -4.5318189238784225e-03 1.9846838334180500e-03 0.0000000000000000e+00  2.5722792604060467e-04 1.9043244333380640e-03 0.0000000000000000e+00  5.0958439068511437e-03 2.1450477452558806e-03 0.0000000000000000e+00  9.8660212745980396e-03 2.7762010420288421e-03 0.0000000000000000e+00  1.4340768092311178e-02 3.9736311687927628e-03 0.0000000000000000e+00  1.3825489686297043e-02 -2.3178598840534574e-03 0.0000000000000000e+00  1.4158969642882201e-02 -8.6626480969669954e-03 0.0000000000000000e+00  1.1411895858125508e-02 -6.1045671469071167e-03 0.0000000000000000e+00  7.9593625854819106e-03 -3.9069460140471269e-03 0.0000000000000000e+00  4.0800469255090864e-03 -1.9087377045546117e-03 0.0000000000000000e+00  0.0000000000000000e+00 0.0000000000000000e+00 0.0000000000000000e+00  0.0000000000000000e+00 0.0000000000000000e+00 0.0000000000000000e+00  -7.0101158318780898e-03 -2.1268561582634352e-03 0.0000000000000000e+00  -1.4025494240966064e-02 -4.3529734054812775e-03 0.0000000000000000e+00  -2.1059954323319471e-02 -6.7864341749977099e-03 0.0000000000000000e+00  -2.8149255526765261e-02 -9.5526984710902901e-03 0.0000000000000000e+00  -2.8216862048635955e-02 -2.5795477290396851e-03 0.0000000000000000e+00  -2.8280932626394618e-02 4.4804394943886942e-03 0.0000000000000000e+00  -1.8616979906375290e-02 3.4669659394635007e-03 0.0000000000000000e+00  -9.0699664436746062e-03 2.9083777160036602e-03 0.0000000000000000e+00  4.3116946740073093e-04 2.7381259625911367e-03 0.0000000000000000e+00  9.9547346044570936e-03 2.9345206600755102e-03 0.0000000000000000e+00  1.9563711088648433e-02 3.5083710778282123e-03 0.0000000000000000e+00  2.9305215790724402e-02 4.4907574893692142e-03 0.0000000000000000e+00  2.9364628626218896e-02 -2.5483059025689764e-03 0.0000000000000000e+00  2.9410871706832455e-02 -9.5447573725732458e-03 0.0000000000000000e+00  2.1946440822163862e-02 -6.8053264642683334e-03 0.0000000000000000e+00  1.4591629392684947e-02 -4.3739130110966411e-03 0.0000000000000000e+00  7.2863450889327133e-03 -2.1393077604976835e-03 0.0000000000000000e+00  0.0000000000000000e+00 0.0000000000000000e+00 0.0000000000000000e+00  0.0000000000000000e+00 0.0000000000000000e+00 0.0000000000000000e+00  -1.0110046944993638e-02 -1.9351524074051395e-03 0.0000000000000000e+00  -2.0407298064220324e-02 -3.9441627517595532e-03 0.0000000000000000e+00  -3.1095826945481863e-02 -6.1023065764770649e-03 0.0000000000000000e+00  -4.2411881016165928e-02 -8.4866985453257038e-03 0.0000000000000000e+00  -4.2812153712745896e-02 -2.4732089543539112e-03 0.0000000000000000e+00  -4.2448363186966979e-02 3.5096831824330084e-03 0.0000000000000000e+00  -2.7653236233547776e-02 2.7467463171248255e-03 0.0000000000000000e+00  -1.3433219519377530e-02 2.2836104350993313e-03 0.0000000000000000e+00  5.1564124438830739e-04 2.1097486065768207e-03 0.0000000000000000e+00  1.4480920822625316e-02 2.2186165855464959e-03 0.0000000000000000e+00  2.8750356165745752e-02 2.6107160859203619e-03 0.0000000000000000e+00  4.3629986411705811e-02 3.2921797383720897e-03 0.0000000000000000e+00  4.4043460881958506e-02 -2.7170220788926064e-03 0.0000000000000000e+00  4.3672839852015491e-02 -8.7306540607911508e-03 0.0000000000000000e+00  3.2020246901345847e-02 -6.2710655754151419e-03 0.0000000000000000e+00  2.1012312905937157e-02 -4.0515876864022568e-03 0.0000000000000000e+00  1.0408892617834273e-02 -1.9876052408686912e-03 0.0000000000000000e+00  0.0000000000000000e+00 0.0000000000000000e+00 0.0000000000000000e+00  0.0000000000000000e+00 0.0000000000000000e+00 0.0000000000000000e+00  -1.2452223396023043e-02 -1.4478076281301017e-03 0.0000000000000000e+00  -2.5210901893979426e-02 -2.9378711147868379e-03 0.0000000000000000e+00  -3.8598468409582129e-02 -4.5118789660840534e-03 0.0000000000000000e+00  -5.2968869389452111e-02 -6.2102977237674401e-03 0.0000000000000000e+00  -5.3581258162205804e-02 -2.4347185677332547e-03 0.0000000000000000e+00  -5.3002144198872413e-02 1.3362148808912172e-03 0.0000000000000000e+00  -3.4413978723351141e-02 8.3256098363841734e-04 0.0000000000000000e+00  -1.6723658480952738e-02 5.0696317343869313e-04 0.0000000000000000e+00  5.3389886092196988e-04 3.5560127335451783e-04 0.0000000000000000e+00  1.7801033613217599e-02 3.7481895150617579e-04 0.0000000000000000e+00  3.5519530785911101e-02 5.6045164934925222e-04 0.0000000000000000e+00  5.4152207802548841e-02 9.0729766472185508e-04 0.0000000000000000e+00  5.4767596419177021e-02 -2.8419793055512546e-03 0.0000000000000000e+00  5.4174568693408073e-02 -6.5804728661757149e-03 0.0000000000000000e+00  3.9489856509574414e-02 -4.7744484463834152e-03 0.0000000000000000e+00  2.5798927415765588e-02 -3.1061050767506983e-03 0.0000000000000000e+00  1.2744197847189120e-02 -1.5299632579348758e-03 0.0000000000000000e+00  0.0000000000000000e+00 0.0000000000000000e+00 0.0000000000000000e+00  0.0000000000000000e+00 0.0000000000000000e+00 0.0000000000000000e+00  -1.3561106295032009e-02 -7.9155124562636596e-04 0.0000000000000000e+00  -2.7484171043446508e-02 -1.5955864219947379e-03 0.0000000000000000e+00  -4.2145109318092129e-02 -2.4235002441084386e-03 0.0000000000000000e+00  -5.7947736339864754e-02 -3.2845640491820129e-03 0.0000000000000000e+00  -5.8652657463829659e-02 -2.4176691775278972e-03 0.0000000000000000e+00  -5.7964576976768087e-02 -1.5561529070652095e-03 0.0000000000000000e+00  -3.7611969636878351e-02 -1.7900786715013615e-03 0.0000000000000000e+00  -1.8296295514175168e-02 -1.9641174543646670e-03 0.0000000000000000e+00  5.1320377251078499e-04 -2.0770134282840020e-03 0.0000000000000000e+00  1.9327801936863842e-02 -2.1309044506808731e-03 0.0000000000000000e+00  3.8658497136293532e-02 -2.1312064263934055e-03 0.0000000000000000e+00  5.9035309530948016e-02 -2.0869541368500246e-03 0.0000000000000000e+00  5.9737294300097984e-02 -2.9000019940104245e-03 0.0000000000000000e+00  5.9039964408527719e-02 -3.7056120306072672e-03 0.0000000000000000e+00  4.2957957702731399e-02 -2.7265375163590382e-03 0.0000000000000000e+00  2.8022956284156571e-02 -1.7915414288326209e-03 0.0000000000000000e+00  1.3829551003993638e-02 -8.8771403353190182e-04 0.0000000000000000e+00  -1.4495730505079713e-10 0.0000000000000000e+00 0.0000000000000000e+00  0.0000000000000000e+00 0.0000000000000000e+00 0.0000000000000000e+00  -1.3215222003412880e-02 -8.5488584747885237e-05 0.0000000000000000e+00  -2.6791196937115788e-02 -1.5779916093468466e-04 0.0000000000000000e+00  -4.1100312721214352e-02 -2.0246247924796086e-04 0.0000000000000000e+00  -5.6538048586189014e-02 -2.0234145313347346e-04 0.0000000000000000e+00  -5.7232983211083679e-02 -2.4311747066306853e-03 0.0000000000000000e+00  -5.6548747285180855e-02 -4.6662518922815010e-03 0.0000000000000000e+00  -3.6691133603336784e-02 -4.6509519890666796e-03 0.0000000000000000e+00  -1.7857926836632766e-02 -4.6782579047355607e-03 0.0000000000000000e+00  4.7201343826026518e-04 -4.7442378854772047e-03 0.0000000000000000e+00  1.8803603005848650e-02 -4.8496787125804535e-03 0.0000000000000000e+00  3.7641575322853907e-02 -5.0000005824455745e-03 0.0000000000000000e+00  5.7506536944679408e-02 -5.2053545456776235e-03 0.0000000000000000e+00  5.8187538895538439e-02 -2.9130675837093336e-03 0.0000000000000000e+00  5.7488279452920545e-02 -6.1662503888033589e-04 0.0000000000000000e+00  4.1812485327234639e-02 -5.0222196024707192e-04 0.0000000000000000e+00  2.7265574635194731e-02 -3.5247159729352940e-04 0.0000000000000000e+00  1.3452231830987600e-02 -1.8127452670769689e-04 0.0000000000000000e+00  0.0000000000000000e+00 0.0000000000000000e+00 0.0000000000000000e+00  0.0000000000000000e+00 0.0000000000000000e+00 0.0000000000000000e+00  -1.1419181883010467e-02 5.6787973699689675e-04 0.0000000000000000e+00  -2.3150548229058140e-02 1.1694086558189612e-03 0.0000000000000000e+00  -3.5515901761481894e-02 1.8394034207006344e-03 0.0000000000000000e+00  -4.8855204260150643e-02 2.6160034397605838e-03 0.0000000000000000e+00  -4.9457632514226947e-02 -2.4748022993511891e-03 0.0000000000000000e+00  -4.8867733871500278e-02 -7.5714433860256834e-03 0.0000000000000000e+00  -3.1700770333134662e-02 -7.3424618520080195e-03 0.0000000000000000e+00  -1.5419470584780708e-02 -7.2387086185600781e-03 0.0000000000000000e+00  4.2486286934057400e-04 -7.2546426197871603e-03 0.0000000000000000e+00  1.6268187216818265e-02 -7.3900356478577844e-03 0.0000000000000000e+00  3.2546325970237815e-02 -7.6499370954570623e-03 0.0000000000000000e+00  4.9707380460023751e-02 -8.0447201170373867e-03 0.0000000000000000e+00  5.0280087590230504e-02 -2.8935389107627601e-03 0.0000000000000000e+00  4.9664527457577268e-02 2.2598695554319750e-03 0.0000000000000000e+00  3.6126917138067670e-02 1.5805778586116407e-03 0.0000000000000000e+00  2.3559323087126806e-02 1.0007088813366795e-03 0.0000000000000000e+00  1.1623832093579183e-02 4.8473232436567552e-04 0.0000000000000000e+00  0.0000000000000000e+00 0.0000000000000000e+00 0.0000000000000000e+00  0.0000000000000000e+00 0.0000000000000000e+00 0.0000000000000000e+00  -8.3638934530288842e-03 1.0868075934682940e-03 0.0000000000000000e+00  -1.6956025010533129e-02 2.2218569021745498e-03 0.0000000000000000e+00  -2.6011226591655740e-02 3.4548471638749952e-03 0.0000000000000000e+00  -3.5776147576297358e-02 4.8386158248383514e-03 0.0000000000000000e+00  -3.6222117251379776e-02 -2.5455757016770103e-03 0.0000000000000000e+00  -3.5795878227025478e-02 -9.9344246958862851e-03 0.0000000000000000e+00  -2.3195757606102069e-02 -9.5356562079965679e-03 0.0000000000000000e+00  -1.1245420856023451e-02 -9.3229269075387165e-03 0.0000000000000000e+00  3.8289713429060445e-04 -9.2897671967469061e-03 0.0000000000000000e+00  1.2008193324208431e-02 -9.4349901365056634e-03 0.0000000000000000e+00  2.3949239971701591e-02 -9.7631020221868314e-03 0.0000000000000000e+00  3.6533505614128881e-02 -1.0284327240050019e-02 0.0000000000000000e+00  3.6932427746199890e-02 -2.8530688421415052e-03 0.0000000000000000e+00  3.6466883110787045e-02 4.5789949606953925e-03 0.0000000000000000e+00  2.6536791105953531e-02 3.2657279582061520e-03 0.0000000000000000e+00  1.7309798523702187e-02 2.0984086816664234e-03 0.0000000000000000e+00  8.5417207484569102e-03 1.0258721002631712e-03 0.0000000000000000e+00  0.0000000000000000e+00 0.0000000000000000e+00 0.0000000000000000e+00  0.0000000000000000e+00 0.0000000000000000e+00 0.0000000000000000e+00  -4.3861766553216159e-03 1.4129430573478991e-03 0.0000000000000000e+00  -8.8919731503122306e-03 2.8826427955118217e-03 0.0000000000000000e+00  -1.3640776644612254e-02 4.4673787749224458e-03 0.0000000000000000e+00  -1.8761564467288810e-02 6.2285400559798573e-03 0.0000000000000000e+00  -1.9006723922461031e-02 -2.6363007750162351e-03 0.0000000000000000e+00  -1.8790255858050810e-02 -1.1503704027352612e-02 0.0000000000000000e+00  -1.2118049312547931e-02 -1.0987289738711667e-02 0.0000000000000000e+00  -5.7952082382865169e-03 -1.0691890409978344e-02 0.0000000000000000e+00  3.5412961459617713e-04 -1.0613969503582402e-02 0.0000000000000000e+00  6.4992647207311070e-03 -1.0751086009272973e-02 0.0000000000000000e+00  1.2809405952482438e-02 -1.1106893177905051e-02 0.0000000000000000e+00  1.9458113470046248e-02 -1.1691056772515472e-02 0.0000000000000000e+00  1.9641144308280751e-02 -2.7999081729465267e-03 0.0000000000000000e+00 