<?xml version="1.0"?>
<VTKFile type="UnstructuredGrid"  version="0.1"  >
<UnstructuredGrid>
<Piece  NumberOfPoints="589" NumberOfCells="1080">
<Points>
<DataArray  type="Float64"  NumberOfComponents="3"  format="ascii">-9 0 0  -8 0 0  -7 0 0  -6 0 0  -5 0 0  -4 0 0  -3 0 0  -2 0 0  -1 0 0  0 0 0  1 0 0  2 0 0  3 0 0  4 0 0  5 0 0  6 0 0  7 0 0  8 0 0  9 0 0  -9 2 0  -8.000007643813795 1.999988682933356 0  -7.000016038438091 1.999978741264792 0  -6.000026931511011 1.999971289483333 0  -5.000044303380903 1.99996680918246 0  -4.000026476028389 1.999975261650432 0  -3.000008101309082 1.999983170841568 0  -1.999999063950591 1.999990547633625 0  -0.9999973958063092 1.999996376087666 0  -3.308830702384078e-07 1.999998939156008 0  0.9999963937646659 1.999997195031912 0  1.999996913048336 1.999991571894358 0  3.00000400630369 1.999984673439847 0  4.000018533948175 1.99997730000658 0  5.000039519478501 1.999974331523348 0  6.000023827657571 1.999975422415023 0  7.00001415712187 1.999981050520312 0  8.000006755258816 1.999989744634667 0  9 2 0  -9 4 0  -8.000012284209435 3.999971865001373 0  -7.000022083108097 3.999947523524721 0  -6.000027947741446 3.999930693339068 0  -5.000030185628043 3.99992492389073 0  -4.000004353904407 3.999928847330962 0  -2.999986940142829 3.999950967281607 0  -1.999982204460269 3.999979746115105 0  -0.9999884710902835 4.000002888731149 0  -7.357102513094934e-07 4.000012241161953 0  0.9999867264256519 4.00000502652681 0  1.999979537303183 3.999985459340235 0  2.999983316762429 3.999958968145838 0  3.999999763275477 3.999932366733475 0  5.000024749203201 3.999923572728138 0  6.000023569996345 3.999932696448796 0  7.000019239355895 3.999949837776649 0  8.000010923795946 3.999973245067058 0  9 4 0  -9 6 0  -8.000026864943919 5.99993987651376 0  -7.000043864777645 5.999886263881312 0  -6.00004347099321 5.999845857370757 0  -5.000023522979938 5.999825079608099 0  -3.999973325729757 5.999857827065834 0  -2.999950385304513 5.99992617328068 0  -1.999959146356002 5.999997797358152 0  -0.9999813081830174 6.000037621900545 0  -3.725597636156476e-06 6.000045656665248 0  0.9999761665649679 6.000032808775111 0  1.999960920123413 5.999997241809758 0  2.999955347231037 5.999937165061668 0  3.99996734231206 5.999874906489484 0  5.000010088752378 5.999844178691915 0  6.000035918038793 5.999857903052942 0  7.000040260327112 5.999893564633478 0  8.000025523886162 5.999943358213835 0  9 6 0  -9 8 0  -8.000080895895273 7.999881860835389 0  -7.000135214785445 7.999772197191071 0  -6.000137207647093 7.9996825236042 0  -5.000064822490716 7.99963182595924 0  -3.999967946860824 7.999782801885234 0  -2.999985625333686 7.999960157698121 0  -2.00002178338423 8.000046578324396 0  -1.000024710692727 8.000056434403549 0  -2.929392119569952e-06 8.000059299633655 0  1.000013446621104 8.000067951624136 0  2.000007022480756 8.000031985039008 0  2.999965293979568 7.999970695913067 0  3.999951405555305 7.999818923834079 0  5.000046479508474 7.99964767562095 0  6.00013420172071 7.999695384690237 0  7.000137582028722 7.99978078178109 0  8.00008326158359 7.999886092370911 0  9 8 0  -9 10 0  -8.000241153186712 9.999790008922135 0  -7.000435780578725 9.99957827216449 0  -6.000528372988865 9.999363454102898 0  -5.000441592369928 9.999145195735643 0  -4.00028817445111 9.999632300181226 0  -3.000313000353781 10.0000511144545 0  -2.000250429469909 9.999979015569568 0  -1.000115412140219 9.999955878677968 0  -1.592065730128534e-05 9.999950235488706 0  1.000082739168453 9.999950671303473 0  2.000213914825566 9.999948058666037 0  3.000329684068157 10.00009821009328 0  4.000315644545243 9.999701917751688 0  5.000489541588998 9.999179057104055 0  6.000569678624951 9.999382248768777 0  7.000465596786973 9.999588420133055 0  8.000256691887214 9.999794486058136 0  9 10 0  -9 12 0  -8.000587135566736 11.99970528015401 0  -7.00114386916861 11.99939690918591 0  -6.001635838696404 11.99905855853113 0  -5.002020413408415 11.99866745578729 0  -4.001942201802914 11.99955508810524 0  -3.002013008745262 12.00043385518535 0  -2.001382382582905 12.00032731923571 0  -1.000681353865252 12.00026955804124 0  4.631882614759748e-05 12.00025809311859 0  1.000781248079857 12.00029473275826 0  2.00150713376258 12.00039016786459 0  3.002191518362976 12.00057118734608 0  4.002116420865621 11.99962099766202 0  5.002166273663204 11.99866295571451 0  6.001741174306889 11.9990575032703 0  7.001212474956797 11.99939667026218 0  8.000621007649135 11.99970520546202 0  9 12 0  -9 14 0  -8.001053945908893 13.99967531450516 0  -7.002109765792597 13.99933573946897 0  -6.003170748654022 13.99896507214422 0  -5.004243801858492 13.99854453478363 0  -4.004255104500654 13.99958139175298 0  -3.004261401063588 14.00063139041976 0  -2.002797417849497 14.00048081701465 0  -1.001354516841363 14.00039831109115 0  7.971417166868873e-05 14.00037377027775 0  1.001517074360917 14.00040390427998 0  2.002968527486058 14.00049036008499 0  3.004442769313366 14.00063784581385 0  4.004454511639995 13.99958345323858 0  5.004460736456659 13.99853562896859 0  6.003325188648353 13.99895489553912 0  7.002209323203249 13.99932781552692 0  8.001102797887919 13.99967108898538 0  9 14 0  -9 16 0  -8.001512196902347 15.99970501243667 0  -7.003053259130148 15.99939916205514 0  -6.004654558407849 15.9990714013921 0  -5.006352575624677 15.99871048856047 0  -4.006413143308718 15.99959450430348 0  -3.006356094780435 16.00047382197472 0  -2.004130878264117 16.00036289926667 0  -1.001994206847638 16.00029589183792 0  0.0001006388455698359 16.000271369504 0  1.002197810573511 16.00028840024995 0  2.004341472551773 16.00034704285837 0  3.006578618795212 16.00044812261724 0  4.006642765700362 15.99955583467674 0  5.006586675417967 15.99866286881102 0  6.004827296079214 15.99903809184931 0  7.003166885452636 15.99937783941801 0  8.00156852959816 15.99969457625651 0  9 16 0  -9 18 0  -8.00185386347485 17.99977818897021 0  -7.003753797438574 17.99955033681816 0  -6.005748269570947 17.99931051721406 0  -5.007890514107327 17.99905305723403 0  -4.007981772249903 17.99959744144632 0  -3.007893956106862 18.0001411229378 0  -2.00511368204688 18.00007002073708 0  -1.002468243017132 18.00002425819218 0  0.0001121962741416123 18.00000347416256 0  1.002694083854704 18.00000715040836 0  2.005343773043974 18.00003464838786 0  3.008130772008249 18.00008507733437 0  4.008223791317866 17.99953525173691 0  5.008135212894843 17.99898705360206 0  6.005929903906126 17.99926345706033 0  7.003873952152517 17.99952007038021 0  8.001913655781106 17.99976337554986 0  9 18 0  -9 20 0  -8.002010210779357 19.99987551217995 0  -7.004074130619086 19.99974940766529 0  -6.00624751574254 19.99962025352632 0  -5.008590214784517 19.99948697718623 0  -4.00869421357134 19.99959743027597 0  -3.008591642457648 19.99970709904997 0  -2.00556111430718 19.99967629680619 0  -1.00268416481341 19.99965324089004 0  0.0001178831064229071 19.99963826662622 0  1.002920860607845 19.99963112482728 0  2.005800562693462 19.9996310024074 0  3.008835567937043 19.99963647251573 0  4.008940173641482 19.99952503076772 0  5.008836961936326 19.99941469268397 0  6.006431359264394 19.99956805671314 0  7.004196104140433 19.99971556897473 0  8.002071019161175 19.9998588802592 0  8.999999999989534 19.9999999999934 0  -9 22 0  -8.001950763767539 21.99997928189245 0  -7.003954563573208 21.99996067167178 0  -6.006066093552795 21.9999464813468 0  -5.008343346927371 21.99993943511682 0  -4.008445089699325 21.99959328614402 0  -3.008344304787169 21.99924625371296 0  -2.005398249940087 21.99925175646582 0  -1.002602373005115 21.99925008229251 0  0.0001198473857455996 21.99924191462795 0  1.002842621090806 21.99922719249412 0  2.005640137098766 21.99920512471706 0  3.008588856490683 21.99917417645181 0  4.008689320883867 21.99952175247617 0  5.008586503777691 21.99986994032131 0  6.006247849098395 21.99989604922778 0  7.004075427783127 21.99992784989347 0  8.002011098340374 21.99996311087234 0  9 22 0  -9 24 0  -8.00167818890027 24.00007462033485 0  -7.003401993599281 24.00015425439218 0  -6.005218314384696 24.0002441237676 0  -5.007176510857995 24.00034987956149 0  -4.007264216261587 23.99958525104087 0  -3.007178153547069 23.99881981895848 0  -2.004638571508568 23.99885576612347 0  -1.002227753195569 23.99887274893696 0  0.0001196923132814307 23.99887163022549 0  1.00246740787771 23.99885248105049 0  2.004879022571631 23.99881458400305 0  3.007419888112556 23.99875642811824 0  4.007503741150655 23.99952356740492 0  5.007413613653883 24.00029103927367 0  6.005395978186291 24.00020124932703 0  7.003520344604104 24.00012626976405 0  8.00173732741448 24.00006080793904 0  9 24 0  -9 26 0  -8.001222019350541 26.00014992368177 0  -7.002477164271192 26.00030690674936 0  -6.003799461901243 26.0004782179526 0  -5.005224558376431 26.00067155983151 0  -4.005289277976736 25.99957386547616 0  -3.005227652483933 25.99847554293743 0  -2.003367589691344 25.99853528049377 0  -1.001601343123765 25.99856746859407 0  0.0001186175646272604 25.9985731099094 0  1.001838635998985 25.99855239332989 0  2.003605042877746 25.99850469386518 0  3.005465330214435 25.99842857168876 0  4.005523390699198 25.99952877650697 0  5.005455276554864 26.00062910928601 0  6.003972695732939 26.00044720637139 0  7.002592732830016 26.00028662580506 0  8.001279818987756 26.00013990104345 0  9 26 0  -9 28 0  -8.000632048622334 28.00019701233188 0  -7.001281354568303 28.00040225980259 0  -6.001965686907097 28.00062418896205 0  -5.002703595076746 28.00087167637339 0  -4.002739218890298 27.99956019312302 0  -3.002708393544856 27.998248375331 0  -2.001725018942477 27.99832462199006 0  -1.000791454123485 27.99836799895888 0  0.0001174755718712341 27.99837963856091 0  1.001026318265754 27.99835984323334 0  2.00195960598883 27.99830808720424 0  3.002942466297424 27.99822301552054 0  4.002968907793853 27.99953619823717 0  5.002929316790369 28.00084942504624 0  6.00213543378451 28.00060789879679 0  7.001394721892925 28.00039158869314 0  8.00068878709
[...]
<PointData  Vectors="f_44-2"> 
<DataArray  type="Float64"  Name="f_44-2"  NumberOfComponents="3" format="ascii">0.0000000000000000e+00 0.0000000000000000e+00 0.0000000000000000e+00  0.0000000000000000e+00 0.0000000000000000e+00 0.0000000000000000e+00  0.0000000000000000e+00 0.0000000000000000e+00 0.0000000000000000e+00  0.0000000000000000e+00 0.0000000000000000e+00 0.0000000000000000e+00  0.0000000000000000e+00 0.0000000000000000e+00 0.0000000000000000e+00  0.0000000000000000e+00 0.0000000000000000e+00 0.0000000000000000e+00  0.0000000000000000e+00 0.0000000000000000e+00 0.0000000000000000e+00  0.0000000000000000e+00 0.0000000000000000e+00 0.0000000000000000e+00  0.0000000000000000e+00 0.0000000000000000e+00 0.0000000000000000e+00  0.0000000000000000e+00 0.0000000000000000e+00 0.0000000000000000e+00  0.0000000000000000e+00 0.0000000000000000e+00 0.0000000000000000e+00  0.0000000000000000e+00 0.0000000000000000e+00 0.0000000000000000e+00  0.0000000000000000e+00 0.0000000000000000e+00 0.0000000000000000e+00  0.0000000000000000e+00 0.0000000000000000e+00 0.0000000000000000e+00  0.0000000000000000e+00 0.0000000000000000e+00 0.0000000000000000e+00  0.0000000000000000e+00 0.0000000000000000e+00 0.0000000000000000e+00  0.0000000000000000e+00 0.0000000000000000e+00 0.0000000000000000e+00  0.0000000000000000e+00 0.0000000000000000e+00 0.0000000000000000e+00  0.0000000000000000e+00 0.0000000000000000e+00 0.0000000000000000e+00  0.0000000000000000e+00 0.0000000000000000e+00 0.0000000000000000e+00  -2.2329109224508533e-05 -3.1762836695238164e-05 0.0000000000000000e+00  -4.7316476737761700e-05 -6.0008624472776297e-05 0.0000000000000000e+00  -8.0460001788785373e-05 -8.1932324704856062e-05 0.0000000000000000e+00  -1.3369250105548059e-04 -9.6473167815805343e-05 0.0000000000000000e+00  -8.3305842485261990e-05 -7.1287653549167784e-05 0.0000000000000000e+00  -3.0112556328669695e-05 -4.9405303913138611e-05 0.0000000000000000e+00  -2.5443633629322212e-06 -2.9779243512158545e-05 0.0000000000000000e+00  5.3700491241984168e-06 -1.4414121075624359e-05 0.0000000000000000e+00  1.1511661458024070e-06 -7.9468156548557346e-06 0.0000000000000000e+00  -3.6331181948728634e-06 -1.3185438688100022e-05 0.0000000000000000e+00  2.3293413087273389e-06 -2.9165697050058281e-05 0.0000000000000000e+00  2.6925447636047279e-05 -4.9238161063807499e-05 0.0000000000000000e+00  7.3217924448148051e-05 -7.2086657918194019e-05 0.0000000000000000e+00  1.3982470884370480e-04 -8.5384890146017464e-05 0.0000000000000000e+00  8.5870729207510580e-05 -7.8563088980462131e-05 0.0000000000000000e+00  5.1301346767485646e-05 -5.9301779829483100e-05 0.0000000000000000e+00  2.4442763251365458e-05 -3.1749161782041740e-05 0.0000000000000000e+00  0.0000000000000000e+00 0.0000000000000000e+00 0.0000000000000000e+00  0.0000000000000000e+00 0.0000000000000000e+00 0.0000000000000000e+00  -3.4024186049024201e-05 -7.7589791481024037e-05 0.0000000000000000e+00  -6.2008412402954512e-05 -1.4530254398563406e-04 0.0000000000000000e+00  -8.0563319388324430e-05 -1.9339444239565120e-04 0.0000000000000000e+00  -9.0708716532147471e-05 -2.1240991035546171e-04 0.0000000000000000e+00  -1.9207724295925093e-05 -2.0290612633343629e-04 0.0000000000000000e+00  3.0688951097869598e-05 -1.4473624011160466e-04 0.0000000000000000e+00  4.7632785958138579e-05 -6.8579421437407197e-05 0.0000000000000000e+00  3.5958062272391145e-05 -7.7229732330939497e-06 0.0000000000000000e+00  8.5505177782624680e-06 1.6204306909022352e-05 0.0000000000000000e+00  -1.9372143615076239e-05 -4.6079035703071117e-06 0.0000000000000000e+00  -3.2586242002551702e-05 -5.9409811637585076e-05 0.0000000000000000e+00  -1.5816374189149795e-05 -1.3405001511027130e-04 0.0000000000000000e+00  3.5394011047028222e-05 -2.1054241434830453e-04 0.0000000000000000e+00  1.0893035984653362e-04 -2.4138060513545162e-04 0.0000000000000000e+00  9.4201112436478884e-05 -2.0688122507863378e-04 0.0000000000000000e+00  7.1757840128594525e-05 -1.5176400783679123e-04 0.0000000000000000e+00  3.9220113719924239e-05 -8.0279567899048610e-05 0.0000000000000000e+00  0.0000000000000000e+00 0.0000000000000000e+00 0.0000000000000000e+00  0.0000000000000000e+00 0.0000000000000000e+00 0.0000000000000000e+00  -6.9874487858554717e-05 -1.6290560118871521e-04 0.0000000000000000e+00  -1.1441766037181802e-04 -3.0906216832751629e-04 0.0000000000000000e+00  -1.1430539735906478e-04 -4.2114552302158610e-04 0.0000000000000000e+00  -6.3756722491505849e-05 -4.8225976492767314e-04 0.0000000000000000e+00  7.2086540034270978e-05 -3.9839222408060950e-04 0.0000000000000000e+00  1.3677231205854752e-04 -2.2010809803687181e-04 0.0000000000000000e+00  1.1932327293548713e-04 -3.2694536165053845e-05 0.0000000000000000e+00  6.6488753106388400e-05 7.2163837810149443e-05 0.0000000000000000e+00  1.2264731203234330e-05 9.2976134946638959e-05 0.0000000000000000e+00  -3.6343466706988534e-05 5.7015565171040876e-05 0.0000000000000000e+00  -7.1983672458882379e-05 -4.1094987444442107e-05 0.0000000000000000e+00  -8.1622969080153579e-05 -2.0636345243754776e-04 0.0000000000000000e+00  -4.3953881553819314e-05 -3.7884858645006114e-04 0.0000000000000000e+00  7.6543287775872212e-05 -4.6694837929790690e-04 0.0000000000000000e+00  1.3338815940673555e-04 -4.1765398129439381e-04 0.0000000000000000e+00  1.3258702839696816e-04 -3.0967538344837058e-04 0.0000000000000000e+00  8.0718942696309762e-05 -1.6397139561700474e-04 0.0000000000000000e+00  0.0000000000000000e+00 0.0000000000000000e+00 0.0000000000000000e+00  0.0000000000000000e+00 0.0000000000000000e+00 0.0000000000000000e+00  -2.0675643098537876e-04 -3.1513017393648913e-04 0.0000000000000000e+00  -3.4541679282344928e-04 -6.0902069867065642e-04 0.0000000000000000e+00  -3.4977293060892037e-04 -8.5268034117107737e-04 0.0000000000000000e+00  -1.6144248350749091e-04 -9.9795893050477259e-04 0.0000000000000000e+00  9.3841017478322688e-05 -6.0680285039830520e-04 0.0000000000000000e+00  5.6050075517030739e-05 -1.4649393842007825e-04 0.0000000000000000e+00  -3.0464192271608403e-05 8.0558804306712497e-05 0.0000000000000000e+00  -3.1866735668567042e-05 1.1042950144298113e-04 0.0000000000000000e+00  2.9671652176148333e-05 1.1964328888177738e-04 0.0000000000000000e+00  7.6330235076921290e-05 1.4192595095708575e-04 0.0000000000000000e+00  6.1678031555072006e-05 4.2474810423605354e-05 0.0000000000000000e+00  -4.6358626981417446e-05 -1.2808282337119310e-04 0.0000000000000000e+00  -7.8072865238872094e-05 -5.4159219337375757e-04 0.0000000000000000e+00  1.8239085536959825e-04 -1.0071675570520828e-03 0.0000000000000000e+00  4.0309334886270986e-04 -8.6303220255411922e-04 0.0000000000000000e+00  3.9760666766139335e-04 -6.1838664649494098e-04 0.0000000000000000e+00  2.3755342968556162e-04 -3.2065487264083836e-04 0.0000000000000000e+00  0.0000000000000000e+00 0.0000000000000000e+00 0.0000000000000000e+00  0.0000000000000000e+00 0.0000000000000000e+00 0.0000000000000000e+00  -6.1559244463062158e-04 -5.5196461468524189e-04 0.0000000000000000e+00  -1.1141109845519313e-03 -1.1093670213945153e-03 0.0000000000000000e+00  -1.3555390479439212e-03 -1.6768509757011003e-03 0.0000000000000000e+00  -1.1433290504114324e-03 -2.2570416307492536e-03 0.0000000000000000e+00  -7.4651831705884006e-04 -1.0112124430100161e-03 0.0000000000000000e+00  -7.9487277070250351e-04 6.2120740038290245e-05 0.0000000000000000e+00  -6.1878487395462562e-04 -1.0979796585754580e-04 0.0000000000000000e+00  -2.6204069067748515e-04 -1.6507251099247972e-04 0.0000000000000000e+00  5.5983793319913633e-06 -1.7864793294423194e-04 0.0000000000000000e+00  2.7291336126728400e-04 -1.7882407528914182e-04 0.0000000000000000e+00  6.2802800110767351e-04 -1.9017106633458189e-04 0.0000000000000000e+00  9.4470388343132817e-04 2.0061302563144725e-04 0.0000000000000000e+00  9.1292851762354073e-04 -8.6744519675038129e-04 0.0000000000000000e+00  1.3807933465132787e-03 -2.2728344008168077e-03 0.0000000000000000e+00  1.5766093574716979e-03 -1.7097151096814615e-03 0.0000000000000000e+00  1.2802904016704112e-03 -1.1390281189276384e-03 0.0000000000000000e+00  7.0399178213219359e-04 -5.6876538242284669e-04 0.0000000000000000e+00  0.0000000000000000e+00 0.0000000000000000e+00 0.0000000000000000e+00  0.0000000000000000e+00 0.0000000000000000e+00 0.0000000000000000e+00  -1.4907552739696663e-03 -7.6631493827471057e-04 0.0000000000000000e+00  -2.9079557238485851e-03 -1.5681550452784699e-03 0.0000000000000000e+00  -4.1685738891424325e-03 -2.4480130830428909e-03 0.0000000000000000e+00  -5.1692160556333138e-03 -3.4650483234486850e-03 0.0000000000000000e+00  -4.9755317262494686e-03 -1.2252935439606152e-03 0.0000000000000000e+00  -5.1457514892762615e-03 9.9054807132942756e-04 0.0000000000000000e+00  -3.4503806484009010e-03 7.3081317402263677e-04 0.0000000000000000e+00  -1.5937282405509171e-03 5.9679146701422617e-04 0.0000000000000000e+00  3.1990006754849753e-04 5.8180149393602116e-04 0.0000000000000000e+00  2.2459097290351204e-03 6.9122288330489062e-04 0.0000000000000000e+00  4.1458185211297157e-03 9.5429386762120485e-04 0.0000000000000000e+00  5.9376774515022381e-03 1.4434996988645266e-03 0.0000000000000000e+00  5.7392211781717170e-03 -1.0974363341329735e-03 0.0000000000000000e+00  5.8719379428932130e-03 -3.6602235712301767e-03 0.0000000000000000e+00  4.7140130837234964e-03 -2.5849747392857943e-03 0.0000000000000000e+00  3.2805526589071406e-03 -1.6569266483793528e-03 0.0000000000000000e+00  1.6797625800344929e-03 -8.1023548784388733e-04 0.0000000000000000e+00  0.0000000000000000e+00 0.0000000000000000e+00 0.0000000000000000e+00  0.0000000000000000e+00 0.0000000000000000e+00 0.0000000000000000e+00  -2.6561136729768269e-03 -8.3774691466725762e-04 0.0000000000000000e+00  -5.3216965991736880e-03 -1.7134573349481517e-03 0.0000000000000000e+00  -8.0105180632871181e-03 -2.6684038824867405e-03 0.0000000000000000e+00  -1.0746273042708105e-02 -3.7503336901050619e-03 0.0000000000000000e+00  -1.0783850133629798e-02 -1.1766439980261374e-03 0.0000000000000000e+00  -1.0786825205436298e-02 1.4299988235483554e-03 0.0000000000000000e+00  -6.9347320755795807e-03 1.0701161959978406e-03 0.0000000000000000e+00  -3.1567646084194427e-03 8.8388491083798005e-04 0.0000000000000000e+00  5.8611653100463298e-04 8.4581579396006325e-04 0.0000000000000000e+00  4.3299097827835973e-03 9.4825003392956888e-04 0.0000000000000000e+00  8.1074843259344026e-03 1.1965103256936895e-03 0.0000000000000000e+00  1.1945491749903848e-02 1.6038899114604560e-03 0.0000000000000000e+00  1.1975754343317838e-02 -1.2119507145392030e-03 0.0000000000000000e+00  1.1992234676237090e-02 -4.0107452562766783e-03 0.0000000000000000e+00  8.9433152854934139e-03 -2.8680689160582875e-03 0.0000000000000000e+00  5.9440419899981214e-03 -1.8473838762405308e-03 0.0000000000000000e+00  2.9676573122841467e-03 -9.0477696226696634e-04 0.0000000000000000e+00  0.0000000000000000e+00 0.0000000000000000e+00 0.0000000000000000e+00  0.0000000000000000e+00 0.0000000000000000e+00 0.0000000000000000e+00  -3.7781531458212611e-03 -7.5679173049439873e-04 0.0000000000000000e+00  -7.6335188525083093e-03 -1.5406803372045616e-03 0.0000000000000000e+00  -1.1650293962233327e-02 -2.3791531143940556e-03 0.0000000000000000e+00  -1.5925804974489612e-02 -3.3000160320668867e-03 0.0000000000000000e+00  -1.6086477668115880e-02 -1.1610962907431860e-03 0.0000000000000000e+00  -1.5930174321445695e-02 9.6548537961577661e-04 0.0000000000000000e+00  -1.0136850443096311e-02 7.1926730541858018e-04 0.0000000000000000e+00  -4.5855886725269263e-03 5.8192417976987959e-04 0.0000000000000000e+00  8.4915922049336829e-04 5.5107687141579592e-04 0.0000000000000000e+00  6.2856735005453919e-03 6.2528652846002006e-04 0.0000000000000000e+00  1.1841944857251128e-02 8.0548247753384216e-04 0.0000000000000000e+00  1.7643390305685659e-02 1.0943300344199759e-03 0.0000000000000000e+00  1.7810489868688328e-02 -1.2972276169051016e-03 0.0000000000000000e+00  1.7663867968959763e-02 -3.6906791515952083e-03 0.0000000000000000e+00  1.2956793340531866e-02 -2.6609312078934326e-03 0.0000000000000000e+00  8.5054996886852474e-03 -1.7239363359646102e-03 0.0000000000000000e+00  4.2143668921528201e-03 -8.4715698800703725e-04 0.0000000000000000e+00  0.0000000000000000e+00 0.0000000000000000e+00 0.0000000000000000e+00  0.0000000000000000e+00 0.0000000000000000e+00 0.0000000000000000e+00  -4.5854857936203346e-03 -5.6732193977356189e-04 0.0000000000000000e+00  -9.2899761857699274e-03 -1.1491156258639698e-03 0.0000000000000000e+00  -1.4238693823354085e-02 -1.7594562057419488e-03 0.0000000000000000e+00  -1.9568985447125251e-02 -2.4116631756600933e-03 0.0000000000000000e+00  -1.9803060979991117e-02 -1.1675071234481592e-03 0.0000000000000000e+00  -1.9572236218783113e-02 7.4697632843135595e-05 0.0000000000000000e+00  -1.2388356865156012e-02 -6.3861946050289232e-05 0.0000000000000000e+00  -5.5567696117394079e-03 -1.4226870725347589e-04 0.0000000000000000e+00  1.1050435245628821e-03 -1.6016795731147828e-04 0.0000000000000000e+00  7.7705239825650802e-03 -1.1797469861158729e-04 0.0000000000000000e+00  1.4612937616766271e-02 -1.6675574470498395e-05 0.0000000000000000e+00  2.1813906415734073e-02 1.4178297067425025e-04 0.0000000000000000e+00  2.2055352656939257e-02 -1.3588788432711135e-03 0.0000000000000000e+00  2.1825839738032919e-02 -2.8553152592400177e-03 0.0000000000000000e+00  1.5927489582237574e-02 -2.0814294576110602e-03 0.0000000000000000e+00  1.0413969600728806e-02 -1.3587409791397111e-03 0.0000000000000000e+00  5.1469261556107695e-03 -6.7072465395111834e-04 0.0000000000000000e+00  0.0000000000000000e+00 0.0000000000000000e+00 0.0000000000000000e+00  0.0000000000000000e+00 0.0000000000000000e+00 0.0000000000000000e+00  -4.9115675247355028e-03 -3.2006756318652503e-04 0.0000000000000000e+00  -9.9591410950598848e-03 -6.4324707245672129e-04 0.0000000000000000e+00  -1.5283786730844136e-02 -9.7210340277135152e-04 0.0000000000000000e+00  -2.1036690954378028e-02 -1.3081748629797528e-03 0.0000000000000000e+00  -2.1298525095966508e-02 -1.1773484743050333e-03 0.0000000000000000e+00  -2.1035293684292654e-02 -1.0490495124896959e-03 0.0000000000000000e+00  -1.3251038959285338e-02 -1.0850270757853623e-03 0.0000000000000000e+00  -5.8580327458265767e-03 -1.1056822151766193e-03 0.0000000000000000e+00  1.3460999142179326e-03 -1.1090856181025575e-03 0.0000000000000000e+00  8.5568334547741955e-03 -1.0950507185192426e-03 0.0000000000000000e+00  1.5969494291429784e-02 -1.0650638016654239e-03 0.0000000000000000e+00  2.3786731704475414e-02 -1.0224179237367712e-03 0.0000000000000000e+00  2.4056994301062892e-02 -1.3888502835400281e-03 0.0000000000000000e+00  2.3790812012000014e-02 -1.7529095373634133e-03 0.0000000000000000e+00  1.7338836379349264e-02 -1.2967667743814968e-03 0.0000000000000000e+00  1.1324284215533156e-02 -8.5544259788227677e-04 0.0000000000000000e+00  5.5926854780622209e-03 -4.2488369032003646e-04 0.0000000000000000e+00  3.6856963841478203e-10 0.0000000000000000e+00 0.0000000000000000e+00  0.0000000000000000e+00 0.0000000000000000e+00 0.0000000000000000e+00  -4.6888036263630474e-03 -6.0476281287388857e-05 0.0000000000000000e+00  -9.5097315599824948e-03 -1.1470995904279760e-04 0.0000000000000000e+00  -1.4598604535861207e-02 -1.5589254875910625e-04 0.0000000000000000e+00  -2.0099422623586615e-02 -1.7609462470512485e-04 0.0000000000000000e+00  -2.0352574120115395e-02 -1.1953959260742899e-03 0.0000000000000000e+00  -2.0099545105765042e-02 -2.2179097407312364e-03 0.0000000000000000e+00  -1.2569437068129371e-02 -2.1666958270183281e-03 0.0000000000000000e+00  -5.4142743319469363e-03 -2.1372106414175524e-03 0.0000000000000000e+00  1.5608838862227698e-03 -2.1268557114408619e-03 0.0000000000000000e+00  8.5453881872139432e-03 -2.1351042001194437e-03 0.0000000000000000e+00  1.5728727805512932e-02 -2.1634247810291812e-03 0.0000000000000000e+00  2.3306326993390664e-02 -2.2152967529211753e-03 0.0000000000000000e+00  2.3564280004791775e-02 -1.3986295502541356e-03 0.0000000000000000e+00  2.3298692994089567e-02 -5.8140656023021055e-04 0.0000000000000000e+00  1.6981972516450339e-02 -4.5256082358641268e-04 0.0000000000000000e+00  1.1091019448840006e-02 -3.0901191221653065e-04 0.0000000000000000e+00  5.4772150131563993e-03 -1.5658111262865077e-04 0.0000000000000000e+00  0.0000000000000000e+00 0.0000000000000000e+00 0.0000000000000000e+00  0.0000000000000000e+00 0.0000000000000000e+00 0.0000000000000000e+00  -3.9325800719567389e-03 1.7414187077691168e-04 0.0000000000000000e+00  -7.9780375612759878e-03 3.6161083633098689e-04 0.0000000000000000e+00  -1.2248157048977427e-02 5.7634701874551182e-04 0.0000000000000000e+00  -1.6864891221799891e-02 8.3329176892170929e-04 0.0000000000000000e+00  -1.7081687093682490e-02 -1.2230686716227723e-03 0.0000000000000000e+00  -1.6871320413172519e-02 -3.2827127055041886e-03 0.0000000000000000e+00  -1.0408151797505216e-02 -3.1623355083277424e-03 0.0000000000000000e+00  -4.2597362732210283e-03 -3.0930405451821481e-03 0.0000000000000000e+00  1.7388509363209805e-03 -3.0710316219938229e-03 0.0000000000000000e+00  7.7490385151589413e-03 -3.0957405038894120e-03 0.0000000000000000e+00  1.3932419477946510e-02 -3.1685674939732097e-03 0.0000000000000000e+00  2.0455127736523006e-02 -3.2928750294225284e-03 0.0000000000000000e+00  2.0668728325187968e-02 -1.3956208241927099e-03 0.0000000000000000e+00  2.0433470383228208e-02 5.0112537701172744e-04 0.0000000000000000e+00  1.4903923193633378e-02 3.3262884759488470e-04 0.0000000000000000e+00  9.7383387292597195e-03 2.0173602905295234e-04 0.0000000000000000e+00  4.8104799483887958e-03 9.4973478407811495e-05 0.0000000000000000e+00  0.0000000000000000e+00 0.0000000000000000e+00 0.0000000000000000e+00  0.0000000000000000e+00 0.0000000000000000e+00 0.0000000000000000e+00  -2.7250920379595571e-03 3.5554470856803363e-04 0.0000000000000000e+00  -5.5290519623144340e-03 7.2923979646120625e-04 0.0000000000000000e+00  -8.4925994276045490e-03 1.1397503743355100e-03 0.0000000000000000e+00  -1.1703090622191922e-02 1.6068419651414996e-03 0.0000000000000000e+00  -1.1862777730149442e-02 -1.2602785638409502e-03 0.0000000000000000e+00  -1.1718453085035559e-02 -4.1302329213185494e-03 0.0000000000000000e+00  -7.0045842602397502e-03 -3.9606755037204780e-03 0.0000000000000000e+00  -2.5146663041441249e-03 -3.8615728313400352e-03 0.0000000000000000e+00  1.8712667433701095e-03 -3.8301977122924525e-03 0.0000000000000000e+00  6.2704880550603029e-03 -3.8658087017751264e-03 0.0000000000000000e+00  1.0800255274535762e-02 -3.9697713565108456e-03 0.0000000000000000e+00  1.5581557918391404e-02 -4.1450377034583912e-03 0.0000000000000000e+00  1.5727874643106838e-02 -1.3858467804707063e-03 0.0000000000000000e+00  1.5545362637299205e-02 1.3722830040366579e-03 0.0000000000000000e+00  1.1352161789827876e-02 9.6731480816367643e-04 0.0000000000000000e+00  7.4239401053728385e-03 6.1594203914919882e-04 0.0000000000000000e+00  3.6691454993035789e-03 2.9939299234013237e-04 0.0000000000000000e+00  0.0000000000000000e+00 0.0000000000000000e+00 0.0000000000000000e+00  0.0000000000000000e+00 0.0000000000000000e+00 0.0000000000000000e+00  -1.1955515466544760e-03 4.6446236411540066e-04 0.0000000000000000e+00  -2.4297055563948103e-03 9.4968663878986219e-04 0.0000000000000000e+00  -3.7424688367400909e-03 1.4769608653923737e-03 0.0000000000000000e+00  -5.1748845635542825e-03 2.0684348906725037e-03 0.0000000000000000e+00  -5.2631101605177342e-03 -1.3043137847044560e-03 0.0000000000000000e+00  -5.1991171529556356e-03 -4.6788764844948915e-03 0.0000000000000000e+00  -2.7246169782613088e-03 -4.4785889466553335e-03 0.0000000000000000e+00  -3.6257821788769910e-04 -4.3607919455052133e-03 0.0000000000000000e+00  1.9512438606348922e-03 -4.3232533557311971e-03 0.0000000000000000e+00  4.2792505241384523e-03 -4.3650773620724052e-03 0.0000000000000000e+00  6.6840816434258184e-03 -4.4873601653595812e-03 0.0000000000000000e+00  9.2302004771416708e-03 -4.6931411426021389e-03 0.0000000000000000e+00  9.2953192826968987e-03 -1.3724201681949997e-03 0.0000000000000000e+