<?xml version="1.0"?>
<VTKFile type="UnstructuredGrid"  version="0.1"  >
<UnstructuredGrid>
<Piece  NumberOfPoints="589" NumberOfCells="1080">
<Points>
<DataArray  type="Float64"  NumberOfComponents="3"  format="ascii">-9 0 0  -8 0 0  -7 0 0  -6 0 0  -5 0 0  -4 0 0  -3 0 0  -2 0 0  -1 0 0  0 0 0  1 0 0  2 0 0  3 0 0  4 0 0  5 0 0  6 0 0  7 0 0  8 0 0  9 0 0  -9 2 0  -8.000001586831285 1.99999719531039 0  -7.000003400285756 1.999994742172988 0  -6.000005925118448 1.999992927037077 0  -5.000010227668008 1.999991876243152 0  -4.000005850970249 1.999993857317682 0  -3.000001264070462 1.99999578163378 0  -1.999999003832675 1.999997600731855 0  -0.9999985904281338 1.999999016775246 0  7.009601660016687e-07 1.999999564435239 0  1.000000010829779 1.999998939449674 0  2.000000483253403 1.999997211372902 0  3.000002939122666 1.999995018574312 0  4.000007759894887 1.999992411577604 0  5.000014895931121 1.999990521875006 0  6.000009367970588 1.999991412548226 0  7.000005692384298 1.999993572213945 0  8.000002737365785 1.999996573459941 0  9 2 0  -9.000000000004983 4 0  -8.00000226716501 3.999992984459049 0  -7.000003955066305 3.999986932373798 0  -6.0000047393612 3.999982796724788 0  -5.000004730533736 3.999981504750949 0  -3.999998154366795 3.999982153686895 0  -2.999993653825852 3.999987581940673 0  -1.999992364093238 3.999994766596097 0  -0.9999938678977792 4.000000503540956 0  3.110176993100882e-06 4.000002625390551 0  1.000000088288722 4.000000253654064 0  1.999998622091381 3.999994392168372 0  3.000000293757429 3.999986387344744 0  4.000005600097438 3.999977941483325 0  5.000013303488941 3.999973749204869 0  6.000011326393663 3.99997774919235 0  7.000008502451825 3.999983778198782 0  8.00000460407116 3.999991445834618 0  9 4 0  -9 6 0  -8.000005264491307 5.999984920027185 0  -7.000008124279614 5.999971457056156 0  -6.000006726090309 5.999961291935084 0  -5.00000049844965 5.999956083719696 0  -3.999987506136252 5.999963875105204 0  -2.999981376670586 5.999980870753459 0  -1.999983167250861 5.999998857917396 0  -0.9999885042370933 6.000009030792192 0  5.859710566414371e-06 6.000010931885862 0  1.000000647680135 6.00000704757378 0  1.99999671829824 5.9999966348307 0  2.999995583349149 5.999979117457799 0  3.999999455740056 5.999960615373429 0  5.000011839094029 5.999950518255849 0  6.000016672217588 5.99995597002812 0  7.000015610179052 5.999967429992334 0  8.000009293388592 5.999982772411313 0  9 6 0  -9 8 0  -8.00001787994591 7.999970388709888 0  -7.000029324989385 7.999942791568558 0  -6.00002803033663 7.999919960777801 0  -5.000008422176966 7.999906459576198 0  -3.999983768075137 7.999943558483215 0  -2.999986778625572 7.999987592772846 0  -1.999994732603196 8.000009870006243 0  -0.9999949277544292 8.000013448755466 0  1.068704069185183e-05 8.000014640139989 0  1.000014639631822 8.000016813300755 0  2.000012550925199 8.000006002080861 0  3.000001131998661 7.999987632511941 0  3.999997567550995 7.999944111816811 0  5.000024215353848 7.999895315098139 0  6.000045597749446 7.9999101600746 0  7.00004373571984 7.999935553546391 0  8.000025888008802 7.99996655955046 0  9 8 0  -9 10 0  -8.000056229620121 9.999947805226808 0  -7.000101478470157 9.999895067688158 0  -6.000122582496433 9.999841322635566 0  -5.00010111247249 9.999786282011799 0  -4.000062819008089 9.999903998852409 0  -3.000066301022662 10.00000605848335 0  -2.000049356650344 9.999991883184261 0  -1.000015515186129 9.999987375897817 0  1.036538491149775e-05 9.999986274561419 0  1.000036576959954 9.999986029984415 0  2.000072008722882 9.999984111735211 0  3.000102505952079 10.00002301743394 0  4.000098518161225 9.999911138330683 0  5.000147702963582 9.999764496941211 0  6.0001674868292 9.999822167457658 0  7.000135794783588 9.999881233442462 0  8.000074637588652 9.999940613105011 0  9 10 0  -9 12 0  -8.000138477996188 11.99992740194828 0  -7.00027017128711 11.99985138918431 0  -6.000387353613439 11.99976789270638 0  -5.000480387375611 11.99967126930956 0  -4.000460854573168 11.99988240277119 0  -3.000475317474447 12.00009119897581 0  -2.000304533834934 12.00006989802993 0  -1.000118739993235 12.00006031668236 0  7.176081510786635e-05 12.0000620256464 0  1.000262082160975 12.00007577692042 0  2.000447529174699 12.00010464667153 0  3.000618440043054 12.00015601719667 0  4.000597357390287 11.9998876348965 0  5.000613717433685 11.99961691066239 0  6.000495207596142 11.9997286198761 0  7.000345677846241 11.99982567524667 0  8.000177285920921 11.99991464812809 0  9 12 0  -9 14 0  -8.000247815943734 13.99992066755662 0  -7.000496828991059 13.99983766289301 0  -6.000748583699854 13.9997469957693 0  -5.001005557491869 13.99964405560457 0  -4.001007914900878 13.99988592322797 0  -3.001006345197583 14.00013068314495 0  -2.000619846150594 14.0001010535341 0  -1.00024082506409 14.00008811324795 0  0.0001339046944279929 14.00008962482948 0  1.000507185794449 14.000105073591 0  2.000881369590173 14.00013521348368 0  3.00125789584756 14.00018159576212 0  4.001260103285253 13.99987626927934 0  5.001264896212363 13.99957244151839 0  6.000946847799381 13.9996937408571 0  7.000630914653285 13.99980247922193 0  8.000315450174424 13.99990318512068 0  9 14 0  -9 16 0  -8.000352299555058 15.99992862845568 0  -7.000712410810609 15.99985460027081 0  -6.001088760599631 15.99977521198476 0  -5.001491064597102 15.99968771392243 0  -4.001505653394366 15.99988642888841 0  -3.001488859582274 16.00008373007062 0  -2.000905427549632 16.00006551026102 0  -1.000345814502615 16.00005815051593 0  0.0002018655188199108 16.00006152031277 0  1.000748792689708 16.00007565172591 0  2.001306060928494 16.00010085820014 0  3.001885383238184 16.00013767787019 0  4.001901860108236 15.99986754194644 0  5.001889378948107 15.99959691792652 0  6.001389753733853 15.99970914376743 0  7.000914108922669 15.99981143982886 0  8.00045345520339 15.99990730065491 0  9 16 0  -9 18 0  -8.000425467866554 17.99994721738319 0  -7.000862914704967 17.99989298504253 0  -6.001324918897692 17.99983587851705 0  -5.001825268063438 17.99977453539366 0  -4.001847506172476 17.99988452784425 0  -3.001823435795073 17.99999406555636 0  -2.001095970139088 17.99998657720618 0  -1.000403174338762 17.99998532221952 0  0.0002728517843716057 17.9999904222971 0  1.000949165680153 18.00000198258891 0  2.001642801651488 18.00002010221849 0  3.002371594005252 18.0000448414404 0  4.002396296944089 17.99986060412489 0  5.002374289133575 17.99967652098707 0  6.00173642125683 17.99976429137483 0  7.001137136673585 17.99984615747137 0  8.000562547778904 17.99992406858743 0  9 18 0  -9 20 0  -8.000450657167248 19.99997160411695 0  -7.000915061718335 19.9999428684762 0  -6.001407483724214 19.99991349635826 0  -5.00194324271993 19.99988327869205 0  -4.00196859267275 19.99988194143271 0  -3.001941255754712 19.99988015173122 0  -2.001148108768346 19.99988274788433 0  -1.00039357915618 19.99988711426127 0  0.0003426973546218111 19.9998935233306 0  1.001080394493484 19.99990211565597 0  2.00183921335482 19.99991290571226 0  3.002639606897791 19.99992577019345 0  4.002668087200059 19.99985644087478 0  5.002641207941138 19.99978716198045 0  6.001928426038388 19.99984306441679 0  7.001261174975732 19.99989669939425 0  8.000623364225097 19.99994875452206 0  8.999999999969205 19.99999999999437 0  -9 22 0  -8.000420796991499 21.99999734910849 0  -7.000855009509045 21.99999529848985 0  -6.001316481633394 21.99999449824478 0  -5.001819915047666 21.99999569919599 0  -4.001844504418109 21.99987850788217 0  -3.001818010862652 21.99976087344051 0  -2.001046064205585 21.9997718497967 0  -1.000311099776802 21.9997807495511 0  0.0004068718073073891 21.99978790611154 0  1.001127289740196 21.99979347234961 0  2.001869640014783 21.99979742471988 0  3.002654054867241 21.99979956047204 0  4.002682188745823 21.99985433340587 0  5.002654514599581 21.9999090673989 0  6.001937988730869 21.99993090634161 0  7.001267258150985 21.99995355879697 0  8.000626299508745 21.99997667523938 0  9 22 0  -9 24 0  -8.000337209630906 24.0000206939751 0  -7.000685781618357 24.0000427286613 0  -6.001057405067225 24.00006749751036 0  -5.001464423638204 24.00009650068961 0  -4.001485160402322 23.9998744434683 0  -3.00146275843529 23.99965198730147 0  -2.000796375572806 23.99966924541283 0  -1.000160777316726 23.999681346357 0  0.000461274702290013 23.99968863959468 0  1.001086613368606 23.99969127395342 0  2.001732128187131 23.99968919895295 0  3.002415227727008 23.99968216384875 0  4.002439652333837 23.99985399951644 0  5.002414614449032 24.00002574896827 0  6.001764071131793 24.00001549036201 0  7.001154074054322 24.0000085590487 0  8.000570515867354 24.00000375950135 0  9 24 0  -9 26 0  -8.000208096405721 26.00003867844087 0  -7.000424192098158 26.00007922506185 0  -6.00065651023718 26.00012356282599 0  -5.00091370972903 26.00017372542886 0  -4.000928243505511 25.99986999538189 0  -3.000912417112271 25.99956591626326 0  -2.000423831862495 25.99958724196552 0  -0.9999563957038172 25.99960114657803 0  0.0005025459513937854 25.99960798173004 0  1.000965390092927 25.99960788633755 0  2.001444595659378 25.99960078677449 0  3.001953001878027 25.99958639648494 0  4.001971118656893 25.99985511983282 0  5.00195138786087 26.00012370502768 0  6.001427680787832 26.00008676186296 0  7.000934960685398 26.00005503030649 0  8.000462482597063 26.00002668263988 0  9 26 0  -9 28 0  -8.00004689251419 28.00004919282922 0  -7.00009754387743 28.00010056023819 0  -6.000155827764231 28.00015633321248 0  -5.000225830478144 28.00021885593386 0  -4.000232588849075 27.99986545527666 0  -3.000225011983878 27.99951176587566 0  -1.999966968990299 27.99953489247903 0  -0.9997181610677801 27.9995491940357 0  0.0005282201867559821 27.99955501692382 0  1.000778875935113 27.999552486855 0  2.001040570918484 27.99954150837913 0  3.001320304974086 27.99952176459708 0  4.00133031783526 27.99985739542494 0  5.001317809371465 28.00019284512365 0  6.000967057179247 28.0001371849972 0  7.000634702272595 28.00008796563444 0  8.000314379231506
[...]
<PointData  Vectors="f_44-2"> 
<DataArray  type="Float64"  Name="f_44-2"  NumberOfComponents="3" format="ascii">0.0000000000000000e+00 0.0000000000000000e+00 0.0000000000000000e+00  0.0000000000000000e+00 0.0000000000000000e+00 0.0000000000000000e+00  0.0000000000000000e+00 0.0000000000000000e+00 0.0000000000000000e+00  0.0000000000000000e+00 0.0000000000000000e+00 0.0000000000000000e+00  0.0000000000000000e+00 0.0000000000000000e+00 0.0000000000000000e+00  0.0000000000000000e+00 0.0000000000000000e+00 0.0000000000000000e+00  0.0000000000000000e+00 0.0000000000000000e+00 0.0000000000000000e+00  0.0000000000000000e+00 0.0000000000000000e+00 0.0000000000000000e+00  0.0000000000000000e+00 0.0000000000000000e+00 0.0000000000000000e+00  0.0000000000000000e+00 0.0000000000000000e+00 0.0000000000000000e+00  0.0000000000000000e+00 0.0000000000000000e+00 0.0000000000000000e+00  0.0000000000000000e+00 0.0000000000000000e+00 0.0000000000000000e+00  0.0000000000000000e+00 0.0000000000000000e+00 0.0000000000000000e+00  0.0000000000000000e+00 0.0000000000000000e+00 0.0000000000000000e+00  0.0000000000000000e+00 0.0000000000000000e+00 0.0000000000000000e+00  0.0000000000000000e+00 0.0000000000000000e+00 0.0000000000000000e+00  0.0000000000000000e+00 0.0000000000000000e+00 0.0000000000000000e+00  0.0000000000000000e+00 0.0000000000000000e+00 0.0000000000000000e+00  0.0000000000000000e+00 0.0000000000000000e+00 0.0000000000000000e+00  0.0000000000000000e+00 0.0000000000000000e+00 0.0000000000000000e+00  8.3305554055381628e-05 1.2492865337149426e-04 0.0000000000000000e+00  1.7438706523191939e-04 2.3423951549669307e-04 0.0000000000000000e+00  2.9202305793157992e-04 3.1521482822830627e-04 0.0000000000000000e+00  4.7955933564030863e-04 3.6215906048840554e-04 0.0000000000000000e+00  2.8319369797843188e-04 2.7141686565339209e-04 0.0000000000000000e+00  8.1731597605068994e-05 1.8406441479827879e-04 0.0000000000000000e+00  -1.6093333847561592e-05 1.0150889092565666e-04 0.0000000000000000e+00  -3.1393762771382565e-05 3.6111408452369868e-05 0.0000000000000000e+00  4.9828661394896616e-06 7.1340100791647814e-06 0.0000000000000000e+00  4.5394729713649300e-05 2.6296896006027586e-05 0.0000000000000000e+00  4.3687702622770204e-05 8.8643929659967469e-05 0.0000000000000000e+00  -3.0895637500225198e-05 1.6463940209578484e-04 0.0000000000000000e+00  -1.8728618800678529e-04 2.4452183482649102e-04 0.0000000000000000e+00  -4.1334253736240113e-04 2.7271553122247365e-04 0.0000000000000000e+00  -2.4804915589281935e-04 2.6415841749971288e-04 0.0000000000000000e+00  -1.4723780632445503e-04 2.0486906332881915e-04 0.0000000000000000e+00  -7.0320882096127604e-05 1.1119888092683934e-04 0.0000000000000000e+00  0.0000000000000000e+00 0.0000000000000000e+00 0.0000000000000000e+00  0.0000000000000000e+00 0.0000000000000000e+00 0.0000000000000000e+00  1.3550661330394623e-04 3.1232454913330556e-04 0.0000000000000000e+00  2.4255663498084387e-04 5.8181836254152686e-04 0.0000000000000000e+00  3.0444446423484502e-04 7.6655241331970657e-04 0.0000000000000000e+00  3.2444773228838548e-04 8.2662208934942440e-04 0.0000000000000000e+00  3.7621995689770255e-05 7.8337399077526031e-04 0.0000000000000000e+00  -1.5412033881556371e-04 5.3544528137916428e-04 0.0000000000000000e+00  -2.0284127348873992e-04 2.1267568323585768e-04 0.0000000000000000e+00  -1.2747952435181837e-04 -4.7385927820332067e-05 0.0000000000000000e+00  1.5347708887757133e-05 -1.5293807581302196e-04 0.0000000000000000e+00  1.6136996139596706e-04 -7.3033114606695584e-05 0.0000000000000000e+00  2.4767598855425244e-04 1.4457669661095953e-04 0.0000000000000000e+00  2.1137437848258529e-04 4.3865517325322999e-04 0.0000000000000000e+00  3.3285640214877562e-05 7.3249553230556941e-04 0.0000000000000000e+00  -2.4126226980518940e-04 8.2438472388340683e-04 0.0000000000000000e+00  -2.3816828895692298e-04 7.3124216466681860e-04 0.0000000000000000e+00  -1.9889595029578850e-04 5.4725586624344705e-04 0.0000000000000000e+00  -1.1425505768203708e-04 2.9250687591402116e-04 0.0000000000000000e+00  0.0000000000000000e+00 0.0000000000000000e+00 0.0000000000000000e+00  0.0000000000000000e+00 0.0000000000000000e+00 0.0000000000000000e+00  3.0152971379586408e-04 6.7102357859560120e-04 0.0000000000000000e+00  4.9137498004101421e-04 1.2684178204568552e-03 0.0000000000000000e+00  4.8440396425315758e-04 1.7165294862000525e-03 0.0000000000000000e+00  2.5633661590927803e-04 1.9430059407148192e-03 0.0000000000000000e+00  -3.0500718011077985e-04 1.5739360275660453e-03 0.0000000000000000e+00  -5.5893087323083542e-04 8.0436864741783058e-04 0.0000000000000000e+00  -4.5480200034242284e-04 -2.0357192772508880e-06 0.0000000000000000e+00  -2.0000494898358658e-04 -4.4966150652313319e-04 0.0000000000000000e+00  5.6967522374454184e-05 -5.3988010090301746e-04 0.0000000000000000e+00  2.8757365321661920e-04 -3.9683164323860251e-04 0.0000000000000000e+00  4.6363614600154112e-04 -5.1673131191404910e-08 0.0000000000000000e+00  5.3123351007351889e-04 6.7059006440122815e-04 0.0000000000000000e+00  4.0179770608356734e-04 1.3644693166251348e-03 0.0000000000000000e+00  -7.2645929112596260e-05 1.7042389762613589e-03 0.0000000000000000e+00  -3.7300145898103458e-04 1.5616818867195796e-03 0.0000000000000000e+00  -4.3202204594198611e-04 1.1726708771674118e-03 0.0000000000000000e+00  -2.7663623680314434e-04 6.2482458694897570e-04 0.0000000000000000e+00  0.0000000000000000e+00 0.0000000000000000e+00 0.0000000000000000e+00  0.0000000000000000e+00 0.0000000000000000e+00 0.0000000000000000e+00  9.1412306087225231e-04 1.3241481820551483e-03 0.0000000000000000e+00  1.5274236933524694e-03 2.5520478587930102e-03 0.0000000000000000e+00  1.5487262549398423e-03 3.5529472101048414e-03 0.0000000000000000e+00  7.2972622859307197e-04 4.1114628255623439e-03 0.0000000000000000e+00  -3.6030230046946437e-04 2.4078903573456663e-03 0.0000000000000000e+00  -1.5294835250468698e-04 4.0664334390334139e-04 0.0000000000000000e+00  2.6204144088919388e-04 -5.6524433109908642e-04 0.0000000000000000e+00  3.0037576955536320e-04 -6.7150047424099121e-04 0.0000000000000000e+00  5.8438467510120120e-05 -7.0179840015926955e-04 0.0000000000000000e+00  -1.2300878239424729e-04 -8.0011942995610323e-04 0.0000000000000000e+00  -4.8345779978009845e-05 -3.9944784360254490e-04 0.0000000000000000e+00  4.2453119537179553e-04 2.8231909077445621e-04 0.0000000000000000e+00  5.8632378861576864e-04 1.9807608180244353e-03 0.0000000000000000e+00  -4.7609481843067662e-04 3.8985278207801779e-03 0.0000000000000000e+00  -1.4731010626613005e-03 3.3777892954409507e-03 0.0000000000000000e+00  -1.5226852774589627e-03 2.4333115447698452e-03 0.0000000000000000e+00  -9.2394094059207953e-04 1.2649665997381857e-03 0.0000000000000000e+00  0.0000000000000000e+00 0.0000000000000000e+00 0.0000000000000000e+00  0.0000000000000000e+00 0.0000000000000000e+00 0.0000000000000000e+00  2.7295522604017623e-03 2.3618981871680643e-03 0.0000000000000000e+00  4.9308784640141818e-03 4.7430746278048237e-03 0.0000000000000000e+00  5.9737725262539532e-03 7.1579546532670501e-03 0.0000000000000000e+00  4.9813339219592677e-03 9.6097361986489833e-03 0.0000000000000000e+00  3.2474671965857546e-03 4.0946514635709363e-03 0.0000000000000000e+00  3.5415729697144023e-03 -6.4585179687251873e-04 0.0000000000000000e+00  2.8469556967206265e-03 1.8492664169997066e-04 0.0000000000000000e+00  1.3273225045807742e-03 4.5211855694640620e-04 0.0000000000000000e+00  2.1169592060642968e-04 5.1745227824799068e-04 0.0000000000000000e+00  -8.9319025022246165e-04 5.1126574476904169e-04 0.0000000000000000e+00  -2.3633032906407213e-03 5.3600886469982892e-04 0.0000000000000000e+00  -3.6577231814430636e-03 -1.1643214944207119e-03 0.0000000000000000e+00  -3.4940139674528655e-03 3.2829273071791698e-03 0.0000000000000000e+00  -5.4464617848405811e-03 9.1538194356822894e-03 0.0000000000000000e+00  -6.3618165009278801e-03 6.8880118801138406e-03 0.0000000000000000e+00  -5.2059758166213615e-03 4.5889457068371111e-03 0.0000000000000000e+00  -2.8715759018755195e-03 2.2912908211360104e-03 0.0000000000000000e+00  0.0000000000000000e+00 0.0000000000000000e+00 0.0000000000000000e+00  0.0000000000000000e+00 0.0000000000000000e+00 0.0000000000000000e+00  6.6558065440096284e-03 3.3217603882574279e-03 0.0000000000000000e+00  1.2964660269449349e-02 6.7979835829263154e-03 0.0000000000000000e+00  1.8533946641437080e-02 1.0613392112484266e-02 0.0000000000000000e+00  2.2877174279020904e-02 1.5025709123684595e-02 0.0000000000000000e+00  2.1984188009850445e-02 4.9488448028423863e-03 0.0000000000000000e+00  2.2793131280309031e-02 -5.0301143924379706e-03 0.0000000000000000e+00  1.5715485038726305e-02 -3.8127799534313400e-03 0.0000000000000000e+00  7.8238858712636906e-03 -3.1471214823216463e-03 0.0000000000000000e+00  -3.7910800483705341e-04 -3.0058031620536661e-03 0.0000000000000000e+00  -8.6693239578518166e-03 -3.4089336712295167e-03 0.0000000000000000e+00  -1.6858703245674556e-02 -4.4763506071862731e-03 0.0000000000000000e+00  -2.4577348198647840e-02 -6.5084283038575677e-03 0.0000000000000000e+00  -2.3732115664082107e-02 4.1750454131354864e-03 0.0000000000000000e+00  -2.4294335206310136e-02 1.4945048710637810e-02 0.0000000000000000e+00  -1.9529947564696483e-02 1.0529300380953836e-02 0.0000000000000000e+00  -1.3600797486649784e-02 6.7377227150815051e-03 0.0000000000000000e+00  -6.9662438634451006e-03 3.2914046069201213e-03 0.0000000000000000e+00  0.0000000000000000e+00 0.0000000000000000e+00 0.0000000000000000e+00  0.0000000000000000e+00 0.0000000000000000e+00 0.0000000000000000e+00  1.1965624275603704e-02 3.6629074234459705e-03 0.0000000000000000e+00  2.3949905960390594e-02 7.4946563659382499e-03 0.0000000000000000e+00  3.5986705505485571e-02 1.1679013487118740e-02 0.0000000000000000e+00  4.8150783454060736e-02 1.6428990268520047e-02 0.0000000000000000e+00  4.8268701888145235e-02 4.6235988481874782e-03 0.0000000000000000e+00  4.8346780079088165e-02 -7.3318495049976085e-03 0.0000000000000000e+00  3.1847866312773136e-02 -5.6053959068974547e-03 0.0000000000000000e+00  1.5569186773043107e-02 -4.6504192007247331e-03 0.0000000000000000e+00  -6.2281423579754465e-04 -4.3525029249105313e-03 0.0000000000000000e+00  -1.6856234002450111e-02 -4.6739523053053664e-03 0.0000000000000000e+00  -3.3250460217854147e-02 -5.6326607419378448e-03 0.0000000000000000e+00  -4.9899335523280387e-02 -7.2810335142768729e-03 0.0000000000000000e+00  -5.0034314205175311e-02 4.5766293641600325e-03 0.0000000000000000e+00  -5.0106369554947391e-02 1.6359591795908891e-02 0.0000000000000000e+00  -3.7345257583063986e-02 1.1670001374131477e-02 0.0000000000000000e+00  -2.4810240953059001e-02 7.5031118232041800e-03 0.0000000000000000e+00  -1.2383286116269047e-02 3.6705679181169865e-03 0.0000000000000000e+00  0.0000000000000000e+00 0.0000000000000000e+00 0.0000000000000000e+00  0.0000000000000000e+00 0.0000000000000000e+00 0.0000000000000000e+00  1.7195070213377087e-02 3.3281243856024549e-03 0.0000000000000000e+00  3.4715596625220162e-02 6.7796917764234481e-03 0.0000000000000000e+00  5.2915043166031968e-02 1.0480336457452392e-02 0.0000000000000000e+00  7.2204747685609000e-02 1.4557892740606660e-02 0.0000000000000000e+00  7.2883719119953796e-02 4.4497686754556044e-03 0.0000000000000000e+00  7.2242579414146510e-02 -5.6051477946765134e-03 0.0000000000000000e+00  4.7114558235621065e-02 -4.3169560975934128e-03 0.0000000000000000e+00  2.2974048934201925e-02 -3.5294171170376851e-03 0.0000000000000000e+00  -7.0191823336163389e-04 -3.2253520687600527e-03 0.0000000000000000e+00  -2.4408278390546462e-02 -3.3934919853789393e-03 0.0000000000000000e+00  -4.8640430132691918e-02 -4.0339741061407135e-03 0.0000000000000000e+00  -7.3925491259570333e-02 -5.1558519699854690e-03 0.0000000000000000e+00  -7.4651783997825308e-02 4.8709071641860066e-03 0.0000000000000000e+00  -7.4019511440158017e-02 1.4905350645864233e-02 0.0000000000000000e+00  -5.4236022670314972e-02 1.0717181352750006e-02 0.0000000000000000e+00  -3.5575138256831042e-02 6.9292099101540454e-03 0.0000000000000000e+00  -1.7618255357055586e-02 3.4008100636326610e-03 0.0000000000000000e+00  0.0000000000000000e+00 0.0000000000000000e+00 0.0000000000000000e+00  0.0000000000000000e+00 0.0000000000000000e+00 0.0000000000000000e+00  2.1116484540394481e-02 2.4994292565160736e-03 0.0000000000000000e+00  4.2755053659181946e-02 5.0678451947975050e-03 0.0000000000000000e+00  6.5464859022198493e-02 7.7730421562330213e-03 0.0000000000000000e+00  8.9849254102701934e-02 1.0679695346564554e-02 0.0000000000000000e+00  9.0881441905957372e-02 4.3994814507853034e-03 0.0000000000000000e+00  8.9889994805647550e-02 -1.8725738574066476e-03 0.0000000000000000e+00  5.8450686546117250e-02 -1.0300738409882292e-03 0.0000000000000000e+00  2.8529646053821994e-02 -4.7876906736235103e-04 0.0000000000000000e+00  -6.5986087311717618e-04 -2.1361270437598087e-04 0.0000000000000000e+00  -2.9866800548479844e-02 -2.2783984250435041e-04 0.0000000000000000e+00  -5.9839120129285828e-02 -5.1375116203993129e-04 0.0000000000000000e+00  -9.1360155399957177e-02 -1.0610969959603997e-03 0.0000000000000000e+00  -9.2412446597750844e-02 5.0942288790247186e-03 0.0000000000000000e+00  -9.1410661763286882e-02 1.1231132459759804e-02 0.0000000000000000e+00  -6.6613156476290056e-02 8.1617949789169510e-03 0.0000000000000000e+00  -4.3509344340773998e-02 5.3159173154755622e-03 0.0000000000000000e+00  -2.1490227487867792e-02 2.6202717716170250e-03 0.0000000000000000e+00  0.0000000000000000e+00 0.0000000000000000e+00 0.0000000000000000e+00  0.0000000000000000e+00 0.0000000000000000e+00 0.0000000000000000e+00  2.2944013464171638e-02 1.3948806284352841e-03 0.0000000000000000e+00  4.6498481759852418e-02 2.8087166625714744e-03 0.0000000000000000e+00  7.1297280947059824e-02 4.2584549624909316e-03 0.0000000000000000e+00  9.8021173016257762e-02 5.7569889154778899e-03 0.0000000000000000e+00  9.9202402392900138e-02 4.3908528228305379e-03 0.0000000000000000e+00  9.8040682784406002e-02 3.0330229009736527e-03 0.0000000000000000e+00  6.3736423033705233e-02 3.4185980689330339e-03 0.0000000000000000e+00  3.1169818523845774e-02 3.7127163378420109e-03 0.0000000000000000e+00  -5.4825297319908148e-04 3.9124916386885618e-03 0.0000000000000000e+00  -3.2274589814531462e-02 4.0214519507898007e-03 0.0000000000000000e+00  -6.4865691567472600e-02 4.0493006902667140e-03 0.0000000000000000e+00  -9.9209319142947505e-02 4.0124839397326284e-03 0.0000000000000000e+00  -1.0039341793958305e-01 5.2074413936229044e-03 0.0000000000000000e+00  -9.9224990346488157e-02 6.3889595774106753e-03 0.0000000000000000e+00  -7.2191519919968625e-02 4.7120509581421235e-03 0.0000000000000000e+00  -4.7090209842375781e-02 3.1014378017624692e-03 0.0000000000000000e+00  -2.3238529778009727e-02 1.5383431738269495e-03 0.0000000000000000e+00  1.2583970247620857e-09 -8.5957622521003641e-11 0.0000000000000000e+00  0.0000000000000000e+00 0.0000000000000000e+00 0.0000000000000000e+00  2.2324536143491138e-02 2.1459565062677372e-04 0.0000000000000000e+00  4.5253465220213951e-02 4.0595983901318147e-04 0.0000000000000000e+00  6.9410609972464177e-02 5.4859105769808477e-04 0.0000000000000000e+00  9.5457393544245969e-02 6.1236060467885196e-04 0.0000000000000000e+00  9.6614866522415715e-02 4.4333441108816889e-03 0.0000000000000000e+00  9.5468771444619890e-02 8.2627383949505674e-03 0.0000000000000000e+00  6.2094867076875213e-02 8.2320819382448937e-03 0.0000000000000000e+00  3.0425990525514725e-02 8.2804439534518992e-03 0.0000000000000000e+00  -4.0398902394576654e-04 8.4006998416785526e-03 0.0000000000000000e+00  -3.1234956539713064e-02 8.5940909522321807e-03 0.0000000000000000e+00  -6.2906441640166053e-02 8.8700685086465676e-03 0.0000000000000000e+00  -9.6283483101856152e-02 9.2464559307136630e-03 0.0000000000000000e+00  -9.7422993525155877e-02 5.2443362957064607e-03 0.0000000000000000e+00  -9.6260591971502635e-02 1.2333284800083630e-03 0.0000000000000000e+00  -7.0016468950548388e-02 9.9722988966978563e-04 0.0000000000000000e+00  -4.5658838523707827e-02 6.9698288840834934e-04 0.0000000000000000e+00  -2.2527524812983792e-02 3.5768882923041577e-04 0.0000000000000000e+00  0.0000000000000000e+00 0.0000000000000000e+00 0.0000000000000000e+00  0.0000000000000000e+00 0.0000000000000000e+00 0.0000000000000000e+00  1.9282015174234803e-02 -8.7281061287163280e-04 0.0000000000000000e+00  3.9084019778169582e-02 -1.8019384064975005e-03 0.0000000000000000e+00  5.9946093140774773e-02 -2.8459043033581396e-03 0.0000000000000000e+00  8.2429435608575852e-02 -4.0683123787813571e-03 0.0000000000000000e+00  8.3426382454911782e-02 4.5192859966714221e-03 0.0000000000000000e+00  8.2441658025028133e-02 1.3113658484786943e-02 0.0000000000000000e+00  5.3656161132373072e-02 1.2730440410963832e-02 0.0000000000000000e+00  2.6337079407815128e-02 1.2561465960980119e-02 0.0000000000000000e+00  -2.5653592266401524e-04 1.2597219745245478e-02 0.0000000000000000e+00  -2.6845378406986770e-02 1.2837273958279908e-02 0.0000000000000000e+00  -5.4149849680486244e-02 1.3290187433742476e-02 0.0000000000000000e+00  -8.2909581546891181e-02 1.3973606613289764e-02 0.0000000000000000e+00  -8.3864188461979475e-02 5.2209409013410134e-03 0.0000000000000000e+00  -8.2849626491677583e-02 -3.5380424641562082e-03 0.0000000000000000e+00  -6.0273585502108366e-02 -2.4607473034264269e-03 0.0000000000000000e+00  -3.9309131382463412e-02 -1.5510848610558706e-03 0.0000000000000000e+00  -1.9395423396939938e-02 -7.4919306282250706e-04 0.0000000000000000e+00  0.0000000000000000e+00 0.0000000000000000e+00 0.0000000000000000e+00  0.0000000000000000e+00 0.0000000000000000e+00 0.0000000000000000e+00  1.4144884905070617e-02 -1.7351100460617935e-03 0.0000000000000000e+00  2.8670370866002250e-02 -3.5499837202485041e-03 0.0000000000000000e+00  4.3967505663749289e-02 -5.5267756872491693e-03 0.0000000000000000e+00  6.0446390238785140e-02 -7.7525902892256159e-03 0.0000000000000000e+00  6.1179050800320239e-02 4.6391107613509624e-03 0.0000000000000000e+00  6.0466200427580261e-02 1.7035462666653688e-02 0.0000000000000000e+00  3.9375488151167724e-02 1.6374242375056029e-02 0.0000000000000000e+00  1.9356432347130956e-02 1.6025701886951561e-02 0.0000000000000000e+00  -1.2916733625636145e-04 1.5978661154315246e-02 0.0000000000000000e+00  -1.9605526877355877e-02 1.6231168961366931e-02 0.0000000000000000e+00  -3.9597071464066769e-02 1.6790494949260094e-02 0.0000000000000000e+00  -6.0640320779797238e-02 1.7673597187638907e-02 0.0000000000000000e+00  -6.1305727026283438e-02 5.1537123519123937e-03 0.0000000000000000e+00  -6.0546126973750107e-02 -7.3701129272091903e-03 0.0000000000000000e+00  -4.4062975386816569e-02 -5.2480379043887042e-03 0.0000000000000000e+00  -2.8743529435973584e-02 -3.3680045659789646e-03 0.0000000000000000e+00  -1.4184154864604111e-02 -1.6452748207535686e-03 0.0000000000000000e+00  0.0000000000000000e+00 0.0000000000000000e+00 0.0000000000000000e+00  0.0000000000000000e+00 0.0000000000000000e+00 0.0000000000000000e+00  7.4777935549325521e-03 -2.2785369197020518e-03 0.0000000000000000e+00  1.5156428576165368e-02 -4.6505437762448349e-03 0.0000000000000000e+00  2.3242213780412451e-02 -7.2119185753398247e-03 0.0000000000000000e+00  3.1950941333171529e-02 -1.0063453598370929e-02 0.0000000000000000e+00  3.2349308852891501e-02 4.7801810341636802e-03 0.0000000000000000e+00  3.1982106502727321e-02 1.9625621243945207e-02 0.0000000000000000e+00  2.0830022941202689e-02 1.8769469951142117e-02 0.0000000000000000e+00  1.0251472158693771e-02 1.8286518405491094e-02 0.0000000000000000e+00  -3.9154998753005136e-05 1.8164344096551946e-02 0.0000000000000000e+00  -1.0317986121801645e-02 1.8399522098938990e-02 0.0000000000000000e+00  -2.0861014808571193e-02 1.8998180973827838e-02 0.0000000000000000e+00  -3.1950641721722066e-02 1.9976038768261498e-02 0.0000000000000000e+00  -3.2259438999844299e-02 5.0564284196653849e-03 0.0000000000000000e+00  -3.1828451780771642e-02 -9.8655072606708485e-03 0.0000000000000000e+00  -2.3175946721042749e-02 -7.067143231