<?xml version="1.0"?>
<VTKFile type="UnstructuredGrid"  version="0.1"  >
<UnstructuredGrid>
<Piece  NumberOfPoints="589" NumberOfCells="1080">
<Points>
<DataArray  type="Float64"  NumberOfComponents="3"  format="ascii">-9 0 0  -8 0 0  -7 0 0  -6 0 0  -5 0 0  -4 0 0  -3 0 0  -2 0 0  -1 0 0  0 0 0  1 0 0  2 0 0  3 0 0  4 0 0  5 0 0  6 0 0  7 0 0  8 0 0  9 0 0  -9 2 0  -8.000007400317282 1.999989023877941 0  -7.000015522569688 1.99997938596757 0  -6.000026055119264 1.999972171176459 0  -5.000042850049085 1.999967850155872 0  -4.000025564426658 1.999976028925667 0  -3.000007762336401 1.999983703205351 0  -1.999999023394514 1.999990870645123 0  -0.9999974442553202 1.999996535227061 0  -3.389774935799913e-07 1.999999029053269 0  0.9999964325088662 1.999997339873694 0  1.999996885152589 1.999991885507679 0  3.000003714695001 1.999985199137956 0  4.000017749290042 1.99997806692085 0  5.000038027158942 1.999975237758064 0  6.000022912425528 1.999976255983053 0  7.00001361105352 1.999981679601894 0  8.000006495315967 1.999990081397784 0  9 2 0  -9 4 0  -8.000011912728654 3.999972695593184 0  -7.000021403976427 3.999949079969427 0  -6.000027060633291 3.999932767548341 0  -5.000029179366636 3.99992720741749 0  -4.000004112313217 3.999931027134657 0  -2.999987233830031 3.999952527048115 0  -1.999982683805742 3.999980494904396 0  -0.999988832462766 4.000002989728185 0  -8.11922770738305e-07 4.000012086628677 0  0.9999869411759795 4.000005090860102 0  1.999979887568348 3.999986102691945 0  2.99998348550885 3.999960400235629 0  3.999999386709029 3.99993460589883 0  5.000023592313708 3.999926133674059 0  6.000022571247382 3.999934890833038 0  7.000018479389099 3.999951447218181 0  8.000010508662923 3.99997409632066 0  9 4 0  -9 6 0  -8.000026110207969 5.999941615506192 0  -7.000042623684637 5.999889564235798 0  -6.000042217867734 5.999850357709423 0  -5.000022793215332 5.999830239342907 0  -3.99997404236287 5.999862093786746 0  -2.999951792909119 5.999928544790925 0  -1.999960373180847 5.999998177382088 0  -0.9999819790705049 6.000036887832779 0  -3.826454108201322e-06 6.000044700242648 0  0.9999765754180128 6.000032231966472 0  1.999961700942449 5.999997701867454 0  2.999956225559769 5.999939371343842 0  3.999967818561289 5.99987893392926 0  5.000009286800847 5.999849132497178 0  6.000034513200116 5.999862331603517 0  7.000038862308354 5.999896847210536 0  8.000024672449555 5.999945096022095 0  9 6 0  -9 8 0  -8.000078684601732 7.999885217836066 0  -7.000131514764969 7.999778685984757 0  -6.000133447110014 7.999691611456353 0  -5.000063047135783 7.999642469171642 0  -3.999968883987874 7.999789288837706 0  -2.999986162749781 7.999961755028155 0  -2.000021404246599 8.000045764791158 0  -1.000024319771379 8.000055304642723 0  -3.195452866455728e-06 8.000058072684238 0  1.000012679951625 8.00006648952051 0  2.000006404878157 8.000031573060953 0  2.999965813064382 7.99997208665401 0  3.999952252606893 7.999824683687498 0  5.000044566898914 7.999658353764539 0  6.000129952648058 7.999704528915388 0  7.000133387713313 7.999787331617061 0  8.000080755129558 7.99988948808059 0  9 8 0  -9 10 0  -8.000234599565681 9.99979588111619 0  -7.000423916073848 9.999590074702899 0  -6.000513926917945 9.999381294978823 0  -5.000429377413588 9.999169211728175 0  -4.000280173174104 9.999643086214864 0  -3.000304488568473 10.00005050252308 0  -2.000243792557134 9.999980231136551 0  -1.000112566960586 9.999957681659883 0  -1.591903672455096e-05 9.999952182461326 0  1.000079902772114 9.999952619654351 0  2.000207314160818 9.999950125409443 0  3.000319717497058 10.0000961494439 0  4.000306001413028 9.999711138654789 0  5.000474955503961 9.999203119571229 0  6.000553030276087 9.999400342898552 0  7.000452079997673 9.999600471865913 0  8.000249260169468 9.999800503244343 0  9 10 0  -9 12 0  -8.000571289246547 11.99971342727932 0  -7.001112956466039 11.99941358061995 0  -6.00159151973551 11.99908458268703 0  -5.001965443658445 11.99870428944634 0  -4.001889285566556 11.9995681460317 0  -3.001958285029301 12.00042339022139 0  -2.001345608122519 12.00031962492668 0  -1.000664238319664 12.00026330094662 0  4.316778470161564e-05 12.0002520119389 0  1.000757692096139 12.00028751042412 0  2.001463435577713 12.00038017898656 0  3.00212879713586 12.00055604038938 0  4.00205578203025 11.99963265676983 0  5.002104242658033 11.99870164987157 0  6.001691399626297 11.99908482592305 0  7.001177845953213 11.9994141816276 0  8.0006032790698 11.99971376792137 0  9 12 0  -9 14 0  -8.001025729195121 13.99968421928204 0  -7.002053231625665 13.99935395136977 0  -6.003085649814034 13.99899343090688 0  -5.004129638213775 13.99858438615954 0  -4.0041405405961 13.99959392935494 0  -3.004146805279571 14.00061626330513 0  -2.002723587482566 14.00046953044916 0  -1.001320666363761 14.00038902495269 0  7.395251497037954e-05 14.000364916168 0  1.001471682635958 14.00039399640297 0  2.002883133826217 14.00047785790913 0  3.004316712398437 14.0006210693377 0  4.004328119226551 13.9995963250763 0  5.004334181309483 13.99857796755022 0  6.003230836623993 13.99898517093451 0  7.002146625974338 13.99934731609696 0  8.001071498925841 13.99968063945478 0  9 14 0  -9 16 0  -8.001472069637742 15.99971305990613 0  -7.002972186065533 15.99941554361931 0  -6.004530831042413 15.99909669391998 0  -5.006183452309112 15.99874556301732 0  -4.006242317049304 15.99960687503761 0  -3.006186923249 16.00046361943487 0  -2.004022985128514 16.00035533449364 0  -1.00194502825496 16.00028981278574 0  9.233370193960263e-05 16.00026565169334 0  1.002131998183756 16.00028193528444 0  2.004216877827483 16.00033871376896 0  3.006392635007817 16.00043678579802 0  4.006455004868592 15.99956960858407 0  5.00640047183543 15.99870177270098 0  6.00469073896624 15.9990661430756 0  7.003077254833678 15.99939601380297 0  8.001524122455622 15.99970350749841 0  9 16 0  -9 18 0  -8.001805158301392 17.99978423130319 0  -7.003655127994978 17.99956257411666 0  -6.005597051949342 17.99932925042677 0  -5.007682711083141 17.99907872734975 0  -4.00777149138721 17.99960987994272 0  -3.007686115750166 18.00014034969394 0  -2.004981789511072 18.00007074445607 0  -1.002408571648486 18.00002584511896 0  0.0001014429669485183 18.00000528752288 0  1.002612867023911 18.00000855830955 0  2.005190221311307 18.00003503055141 0  3.007901093106347 18.00008383559866 0  4.007991557368664 17.99954967806438 0  5.007905406413967 17.99901710264504 0  6.005762224749217 17.99928536584564 0  7.003764328197198 17.99953437464597 0  8.001859479231703 17.99977043663722 0  9 18 0  -9 20 0  -8.001958018768507 19.99987893992878 0  -7.00396830888604 19.99975629571698 0  -6.006085135193865 19.99963066112694 0  -5.008366748370288 19.99950097924914 0  -4.008467977884989 19.99960997337319 0  -3.008368187353385 19.99971820893415 0  -2.005419915625577 19.99968781777656 0  -1.002621086184528 19.9996650132706 0  0.0001048393289049083 19.9996501107251 0  1.002831629911707 19.9996428596176 0  2.005633018070487 19.99964246351305 0  3.008585443021708 19.99964753159056 0  4.008687196800795 19.99953977566912 0  5.008586793578051 19.99943309763611 0  6.006249054116377 19.99958167630817 0  7.004077047287747 19.99972455562429 0  8.002012223826885 19.99986334442836 0  8.999999999992031 19.9999999999934 0  -9 22 0  -8.00190088610173 21.99997996602137 0  -7.003853413281333 21.99996197393641 0  -6.005910838163394 21.99994826377096 0  -5.008129634203406 21.99994147573269 0  -4.008228700972458 21.99960602006829 0  -3.00813058722005 21.99926971373258 0  -2.005264075047292 21.99927470526776 0  -1.002543777709989 21.99927274972653 0  0.0001047700054164958 21.99926450426581 0  1.002753781249168 21.99924990311515 0  2.005475447058115 21.99922817135047 0  3.00834416851461 21.99919781173175 0  4.008441916764001 21.99953660354586 0  5.008341896455242 21.99987600047433 0  6.006069575453147 21.9999007727077 0  7.003959004218347 21.99993107791911 0  8.001953605884598 21.99996474736514 0  9 22 0  -9 24 0  -8.001636257130176 24.0000728248745 0  -7.003316954156929 24.00015052294677 0  -6.005087775354111 24.0002381694714 0  -5.006996814167215 24.00034125750133 0  -4.007082227886564 23.99959827586322 0  -3.006998385713134 23.99885452408551 0  -2.004527063712847 23.99888923257355 0  -1.002181172818698 23.99890550572204 0  0.0001029346613854319 23.99890417885261 0  1.002387201464489 23.9988853165056 0  2.004733554775842 23.99884821597507 0  3.007205597441453 23.99879140224117 0  4.007287205802937 23.99953838985681 0  5.007199551242481 24.00028571443981 0  6.00523985866094 24.00019771391169 0  7.003418342305421 24.00012412507501 0  8.001686943265007 24.00005979810414 0  9 24 0  -9 26 0  -8.001192806377851 26.00014620971342 0  -7.00241790336347 26.00029928782497 0  -6.003708459156685 26.00046630668066 0  -5.005099230008684 26.0006547608991 0  -4.005162259789617 25.99958727977153 0  -3.005102159060928 25.99851919916679 0  -2.003291878968267 25.99857716671893 0  -1.001573043973845 25.99860832793908 0  0.0001006137493352195 25.99861365696587 0  1.001774203668179 25.99859333469842 0  2.003492820452208 25.99854674931269 0  3.005302687638824 25.99847249497157 0  4.005359214260924 25.99954349848763 0  5.005293014817224 26.00061464011564 0  6.003854218110774 26.00043700770343 0  7.002515260072688 26.00028013207198 0  8.001241531867755 26.00013674471605 0  9 26 0  -9 28 0  -8.000618962723706 28.00019214261781 0  -7.001254772804833 28.00039230217757 0  -6.001924775142541 28.00060870179213 0  -5.002647078289501 28.00084998338928 0  -4.002681764253829 27.99957406701999 0  -3.002651618197572 27.99829783421047 0  -2.001694392306756 27.99837197581433 0  -1.000785781067111 27.99841412288791 0  9.871917900225085e-05 27.99842537699 0  1.00098299904938 27.99840603172461 0  2.001890931288246 27.99835557307782 0  3.002846966003761 27.9982726783898 0  4.002872729196649 27.99955078036149 0  5.002834327120479 28.00082893581184 0  6.002065904173627 28.00059329858625 0  7.001349174005749 28.00038221495073 0  8.000666251917778 28.0
[...]
<PointData  Vectors="f_44-2"> 
<DataArray  type="Float64"  Name="f_44-2"  NumberOfComponents="3" format="ascii">0.0000000000000000e+00 0.0000000000000000e+00 0.0000000000000000e+00  0.0000000000000000e+00 0.0000000000000000e+00 0.0000000000000000e+00  0.0000000000000000e+00 0.0000000000000000e+00 0.0000000000000000e+00  0.0000000000000000e+00 0.0000000000000000e+00 0.0000000000000000e+00  0.0000000000000000e+00 0.0000000000000000e+00 0.0000000000000000e+00  0.0000000000000000e+00 0.0000000000000000e+00 0.0000000000000000e+00  0.0000000000000000e+00 0.0000000000000000e+00 0.0000000000000000e+00  0.0000000000000000e+00 0.0000000000000000e+00 0.0000000000000000e+00  0.0000000000000000e+00 0.0000000000000000e+00 0.0000000000000000e+00  0.0000000000000000e+00 0.0000000000000000e+00 0.0000000000000000e+00  0.0000000000000000e+00 0.0000000000000000e+00 0.0000000000000000e+00  0.0000000000000000e+00 0.0000000000000000e+00 0.0000000000000000e+00  0.0000000000000000e+00 0.0000000000000000e+00 0.0000000000000000e+00  0.0000000000000000e+00 0.0000000000000000e+00 0.0000000000000000e+00  0.0000000000000000e+00 0.0000000000000000e+00 0.0000000000000000e+00  0.0000000000000000e+00 0.0000000000000000e+00 0.0000000000000000e+00  0.0000000000000000e+00 0.0000000000000000e+00 0.0000000000000000e+00  0.0000000000000000e+00 0.0000000000000000e+00 0.0000000000000000e+00  0.0000000000000000e+00 0.0000000000000000e+00 0.0000000000000000e+00  0.0000000000000000e+00 0.0000000000000000e+00 0.0000000000000000e+00  -2.5655315386488976e-05 -3.5652854006594077e-05 0.0000000000000000e+00  -5.4341092331894829e-05 -6.7442872794970719e-05 0.0000000000000000e+00  -9.2262059704322058e-05 -9.2300783059170844e-05 0.0000000000000000e+00  -1.5283050113518840e-04 -1.0910247793025738e-04 0.0000000000000000e+00  -9.6139419399410650e-05 -8.0320641033881809e-05 0.0000000000000000e+00  -3.6192634620813740e-05 -5.5750185015624159e-05 0.0000000000000000e+00  -4.8825761428702473e-06 -3.3914447308391513e-05 0.0000000000000000e+00  4.5990157592720132e-06 -1.6821993236614392e-05 0.0000000000000000e+00  5.9031853497139251e-07 -9.5813868391486743e-06 0.0000000000000000e+00  -4.1237095190470234e-06 -1.5253524428935100e-05 0.0000000000000000e+00  2.9269080354215805e-06 -3.2751533878421891e-05 0.0000000000000000e+00  3.0425517291431205e-05 -5.4739259246871677e-05 0.0000000000000000e+00  8.1704689007467145e-05 -7.9718698805469692e-05 0.0000000000000000e+00  1.5521290052234154e-04 -9.4039192229999441e-05 0.0000000000000000e+00  9.5107338022416585e-05 -8.6519499527190692e-05 0.0000000000000000e+00  5.6703663413102457e-05 -6.5303033013414805e-05 0.0000000000000000e+00  2.6980104400512652e-05 -3.4960413584384165e-05 0.0000000000000000e+00  0.0000000000000000e+00 0.0000000000000000e+00 0.0000000000000000e+00  0.0000000000000000e+00 0.0000000000000000e+00 0.0000000000000000e+00  -3.9187663587088432e-05 -8.6752616507875769e-05 0.0000000000000000e+00  -7.1741482730146563e-05 -1.6261085029021223e-04 0.0000000000000000e+00  -9.3933350171783277e-05 -2.1682464718076439e-04 0.0000000000000000e+00  -1.0689066728887165e-04 -2.3895412319331638e-04 0.0000000000000000e+00  -2.7068051194132865e-05 -2.2799580050742653e-04 0.0000000000000000e+00  2.8875059309837580e-05 -1.6334055901888800e-04 0.0000000000000000e+00  4.8443552709510847e-05 -7.8824016970051506e-05 0.0000000000000000e+00  3.6422686724295055e-05 -1.1322394838619827e-05 0.0000000000000000e+00  6.9953228649138695e-06 1.5358755279583786e-05 0.0000000000000000e+00  -2.3056826960881545e-05 -7.2780489918823821e-06 0.0000000000000000e+00  -3.6980328229894295e-05 -6.7333199169900720e-05 0.0000000000000000e+00  -1.7999178449830615e-05 -1.4914066822116048e-04 0.0000000000000000e+00  3.8722830025025815e-05 -2.3276310666889378e-04 0.0000000000000000e+00  1.1979295281358282e-04 -2.6583660690285732e-04 0.0000000000000000e+00  1.0340505857144582e-04 -2.2782294200210249e-04 0.0000000000000000e+00  7.8685122796722033e-05 -1.6710559064782670e-04 0.0000000000000000e+00  4.2984138123211260e-05 -8.8386756199651200e-05 0.0000000000000000e+00  0.0000000000000000e+00 0.0000000000000000e+00 0.0000000000000000e+00  0.0000000000000000e+00 0.0000000000000000e+00 0.0000000000000000e+00  -7.9250353411422321e-05 -1.8140906380770147e-04 0.0000000000000000e+00  -1.3058968183919174e-04 -3.4433747077299817e-04 0.0000000000000000e+00  -1.3254375252010127e-04 -4.6966777610616263e-04 0.0000000000000000e+00  -7.8772182277931217e-05 -5.3876228011470295e-04 0.0000000000000000e+00  7.1913109266544950e-05 -4.4566046315168618e-04 0.0000000000000000e+00  1.4398237965392260e-04 -2.4829151342781988e-04 0.0000000000000000e+00  1.2533293361618244e-04 -4.0947118097732581e-05 0.0000000000000000e+00  6.7675324732750664e-05 7.5028767796972906e-05 0.0000000000000000e+00  8.5975794619494227e-06 9.8246232411661552e-05 0.0000000000000000e+00  -4.4158656405077319e-05 5.8891306226164037e-05 0.0000000000000000e+00  -8.2580754737922738e-05 -4.8684307125513772e-05 0.0000000000000000e+00  -9.2537571399554393e-05 -2.2984251952829686e-04 0.0000000000000000e+00  -5.0667364891259753e-05 -4.1868720499941810e-04 0.0000000000000000e+00  8.2170736164250552e-05 -5.1449951097950748e-04 0.0000000000000000e+00  1.4503158713253343e-04 -4.5992327380512212e-04 0.0000000000000000e+00  1.4458536434232592e-04 -3.4089302291171689e-04 0.0000000000000000e+00  8.8112231818431949e-05 -1.8046442822522646e-04 0.0000000000000000e+00  0.0000000000000000e+00 0.0000000000000000e+00 0.0000000000000000e+00  0.0000000000000000e+00 0.0000000000000000e+00 0.0000000000000000e+00  -2.3107304195962714e-04 -3.4989403015848336e-04 0.0000000000000000e+00  -3.8694472941645656e-04 -6.7635539911966430e-04 0.0000000000000000e+00  -3.9403736372767940e-04 -9.4735451706943227e-04 0.0000000000000000e+00  -1.8818928505866033e-04 -1.1097273773896554e-03 0.0000000000000000e+00  9.4183111915700980e-05 -6.7694886262437712e-04 0.0000000000000000e+00  5.2543040548657905e-05 -1.6790238316911598e-04 0.0000000000000000e+00  -4.2850671408341797e-05 8.2988206677900230e-05 0.0000000000000000e+00  -4.3993618657341444e-05 1.1578520570321553e-04 0.0000000000000000e+00  2.4515517193150582e-05 1.2583934945524760e-04 0.0000000000000000e+00  7.6847780765916700e-05 1.5024313631512010e-04 0.0000000000000000e+00  6.1657092122523324e-05 4.1347289879957856e-05 0.0000000000000000e+00  -5.6096995936055834e-05 -1.4567298830174687e-04 0.0000000000000000e+00  -8.9825566158606245e-05 -5.9898985041293578e-04 0.0000000000000000e+00  1.9689668982553668e-04 -1.1092550330398280e-03 0.0000000000000000e+00  4.3981648084118365e-04 -9.4969927449050490e-04 0.0000000000000000e+00  4.3451070576525346e-04 -6.8016526234722222e-04 0.0000000000000000e+00  2.5972452103221560e-04 -3.5260221305080804e-04 0.0000000000000000e+00  0.0000000000000000e+00 0.0000000000000000e+00 0.0000000000000000e+00  0.0000000000000000e+00 0.0000000000000000e+00 0.0000000000000000e+00  -6.8323806393107210e-04 -6.1173422299172378e-04 0.0000000000000000e+00  -1.2370990133734896e-03 -1.2295308100481741e-03 0.0000000000000000e+00  -1.5068132320742288e-03 -1.8585906463947201e-03 0.0000000000000000e+00  -1.2754953737460493e-03 -2.5018882846775817e-03 0.0000000000000000e+00  -8.3688815035342257e-04 -1.1244848273608474e-03 0.0000000000000000e+00  -8.9010475882703752e-04 6.2129815541962143e-05 0.0000000000000000e+00  -6.9486468920111643e-04 -1.2843452913490649e-04 0.0000000000000000e+00  -3.0007578677888148e-04 -1.8967834762749299e-04 0.0000000000000000e+00  -4.1360612973468504e-06 -2.0467468702538150e-04 0.0000000000000000e+00  2.9108720926032206e-04 -2.0477050532461387e-04 0.0000000000000000e+00  6.8234956987209532e-04 -2.1690937736542325e-04 0.0000000000000000e+00  1.0326597176156908e-03 2.1151819788806103e-04 0.0000000000000000e+00  9.9967122005422413e-04 -9.5896969314763982e-04 0.0000000000000000e+00  1.5125733442810944e-03 -2.4987203457479631e-03 0.0000000000000000e+00  1.7264933975390103e-03 -1.8786028589466396e-03 0.0000000000000000e+00  1.4017144540500234e-03 -1.2511113375392501e-03 0.0000000000000000e+00  7.7066702972329159e-04 -6.2461364640761059e-04 0.0000000000000000e+00  0.0000000000000000e+00 0.0000000000000000e+00 0.0000000000000000e+00  0.0000000000000000e+00 0.0000000000000000e+00 0.0000000000000000e+00  -1.6507922406590037e-03 -8.4853594775470488e-04 0.0000000000000000e+00  -3.2203842953392342e-03 -1.7363270774213302e-03 0.0000000000000000e+00  -4.6171447804729997e-03 -2.7103383209204687e-03 0.0000000000000000e+00  -5.7270823771393238e-03 -3.8359798048509175e-03 0.0000000000000000e+00  -5.5134113593798360e-03 -1.3607023851115456e-03 0.0000000000000000e+00  -5.7017682537114532e-03 1.0883219291114808e-03 0.0000000000000000e+00  -3.8371095737180006e-03 7.9899189253227170e-04 0.0000000000000000e+00  -1.7943707045095334e-03 6.4840244187096946e-04 0.0000000000000000e+00  3.1187625898400275e-04 6.2898274579027604e-04 0.0000000000000000e+00  2.4329799946728125e-03 7.4643734828743207e-04 0.0000000000000000e+00  4.5276458220271003e-03 1.0327434224684205e-03 0.0000000000000000e+00  6.5073563089208105e-03 1.5674137674348109e-03 0.0000000000000000e+00  6.2919673345096334e-03 -1.2122726799091354e-03 0.0000000000000000e+00  6.4358675942917240e-03 -4.0156160800857293e-03 0.0000000000000000e+00  5.1630277599443797e-03 -2.8351948037608258e-03 0.0000000000000000e+00  3.5914983857636305e-03 -1.8169678343925532e-03 0.0000000000000000e+00  1.8385514610250668e-03 -8.8839538302353178e-04 0.0000000000000000e+00  0.0000000000000000e+00 0.0000000000000000e+00 0.0000000000000000e+00  0.0000000000000000e+00 0.0000000000000000e+00 0.0000000000000000e+00  -2.9388148189147725e-03 -9.2743663048370660e-04 0.0000000000000000e+00  -5.8880708040976518e-03 -1.8967208808663011e-03 0.0000000000000000e+00  -8.8629343498891101e-03 -2.9533457727228089e-03 0.0000000000000000e+00  -1.1889720923194480e-02 -4.1499383057736908e-03 0.0000000000000000e+00  -1.1931382310339836e-02 -1.3060979802898072e-03 0.0000000000000000e+00  -1.1934938756662992e-02 1.5743432319348990e-03 0.0000000000000000e+00  -7.6998860837349968e-03 1.1731181826099720e-03 0.0000000000000000e+00  -3.5462863176028612e-03 9.6326242601652934e-04 0.0000000000000000e+00  5.6944906672951111e-04 9.1642560220004169e-04 0.0000000000000000e+00  4.6876022693131672e-03 1.0239247140878169e-03 0.0000000000000000e+00  8.8452145973278926e-03 1.2913835258274824e-03 0.0000000000000000e+00  1.3072750242323534e-02 1.7331776733498555e-03 0.0000000000000000e+00  1.3108402956468828e-02 -1.3381248323058033e-03 0.0000000000000000e+00  1.3124630418214073e-02 -4.3904969628879584e-03 0.0000000000000000e+00  9.7834048740237933e-03 -3.1394286928187998e-03 0.0000000000000000e+00  6.5004036665748154e-03 -2.0220626943430590e-03 0.0000000000000000e+00  3.2448441890696404e-03 -9.9029222704833308e-04 0.0000000000000000e+00  0.0000000000000000e+00 0.0000000000000000e+00 0.0000000000000000e+00  0.0000000000000000e+00 0.0000000000000000e+00 0.0000000000000000e+00  -4.1792116615800550e-03 -8.3837288611557283e-04 0.0000000000000000e+00  -8.4436755732968990e-03 -1.7065314257099916e-03 0.0000000000000000e+00  -1.2885495178178353e-02 -2.6346461017709394e-03 0.0000000000000000e+00  -1.7612263060777247e-02 -3.6532515259084285e-03 0.0000000000000000e+00  -1.7789337481997382e-02 -1.2884026781345044e-03 0.0000000000000000e+00  -1.7617514261985635e-02 1.0629047492865533e-03 0.0000000000000000e+00  -1.1252187525725651e-02 7.8654440765310455e-04 0.0000000000000000e+00  -5.1533654758680924e-03 6.2989936328489171e-04 0.0000000000000000e+00  8.1780227454392499e-04 5.9001502579912569e-04 0.0000000000000000e+00  6.7917304564210565e-03 6.6515619974212754e-04 0.0000000000000000e+00  1.2898571571217182e-02 8.5613517967814698e-04 0.0000000000000000e+00  1.9277037906752219e-02 1.1656154855448104e-03 0.0000000000000000e+00  1.9462112189079176e-02 -1.4316683117477380e-03 0.0000000000000000e+00  1.9299981999179022e-02 -4.0309034313451017e-03 0.0000000000000000e+00  1.4152531697544416e-02 -2.9064496967426169e-03 0.0000000000000000e+00  9.2883935606506342e-03 -1.8830861171760577e-03 0.0000000000000000e+00  4.6016496342664416e-03 -9.2538389825467745e-04 0.0000000000000000e+00  0.0000000000000000e+00 0.0000000000000000e+00 0.0000000000000000e+00  0.0000000000000000e+00 0.0000000000000000e+00 0.0000000000000000e+00  -5.0734969374540088e-03 -6.3002898533474027e-04 0.0000000000000000e+00  -1.0277819092872283e-02 -1.2759079073792331e-03 0.0000000000000000e+00  -1.5750579166323657e-02 -1.9530352735031703e-03 0.0000000000000000e+00  -2.1642811461779713e-02 -2.6759022558611903e-03 0.0000000000000000e+00  -2.1900369039462509e-02 -1.2952435313359294e-03 0.0000000000000000e+00  -2.1646972922591871e-02 8.3398092981508510e-05 0.0000000000000000e+00  -1.3759377438506012e-02 -7.4417314561127772e-05 0.0000000000000000e+00  -6.2588806489245388e-03 -1.6649614550438209e-04 0.0000000000000000e+00  1.0549606837282584e-03 -1.9251991211124568e-04 0.0000000000000000e+00  8.3728298664111269e-03 -1.5306837164887879e-04 0.0000000000000000e+00  1.5885077951725380e-02 -4.9418564250942933e-05 0.0000000000000000e+00  2.3791229465516081e-02 1.1604382441582037e-04 0.0000000000000000e+00  2.4056681542233404e-02 -1.4993382486388146e-03 0.0000000000000000e+00  2.3804506145684572e-02 -3.1099694761678870e-03 0.0000000000000000e+00  1.7367511847512472e-02 -2.2675896122479264e-03 0.0000000000000000e+00  1.1353688046133443e-02 -1.4805291465158775e-03 0.0000000000000000e+00  5.6105523682193287e-03 -7.3086313151290885e-04 0.0000000000000000e+00  0.0000000000000000e+00 0.0000000000000000e+00 0.0000000000000000e+00  0.0000000000000000e+00 0.0000000000000000e+00 0.0000000000000000e+00  -5.4388461641982693e-03 -3.5839728318593850e-04 0.0000000000000000e+00  -1.1027038865203237e-02 -7.2016949293334897e-04 0.0000000000000000e+00  -1.6919489323970322e-02 -1.0880792905681382e-03 0.0000000000000000e+00  -2.3282174640995530e-02 -1.4637372194752859e-03 0.0000000000000000e+00  -2.3569949753166237e-02 -1.3059735324140876e-03 0.0000000000000000e+00  -2.3281288992792415e-02 -1.1508235827155234e-03 0.0000000000000000e+00  -1.4739944187793478e-02 -1.1957680037494277e-03 0.0000000000000000e+00  -6.6282661258819219e-03 -1.2242038484310618e-03 0.0000000000000000e+00  1.2757275305907974e-03 -1.2340813231083642e-03 0.0000000000000000e+00  9.1860932753252290e-03 -1.2253050873136590e-03 0.0000000000000000e+00  1.7316902300803627e-02 -1.1996623407871845e-03 0.0000000000000000e+00  2.5890182094144214e-02 -1.1609660195046887e-03 0.0000000000000000e+00  2.6186064164429632e-02 -1.5324378874173440e-03 0.0000000000000000e+00  2.5894674083155562e-02 -1.9011877486866900e-03 0.0000000000000000e+00  1.8868535992245961e-02 -1.4070657002017955e-03 0.0000000000000000e+00  1.2321833301394055e-02 -9.2854975015087217e-04 0.0000000000000000e+00  6.0848346919839154e-03 -4.6128837055970225e-04 0.0000000000000000e+00  -3.5344740519197970e-10 0.0000000000000000e+00 0.0000000000000000e+00  0.0000000000000000e+00 0.0000000000000000e+00 0.0000000000000000e+00  -5.2016247684254623e-03 -7.3388518710426658e-05 0.0000000000000000e+00  -1.0548172956377212e-02 -1.3992843380132111e-04 0.0000000000000000e+00  -1.6188940284479262e-02 -1.9214315256111243e-04 0.0000000000000000e+00  -2.2281736590058724e-02 -2.2132291282556555e-04 0.0000000000000000e+00  -2.2559784408310187e-02 -1.3256566383455476e-03 0.0000000000000000e+00  -2.2282499874795629e-02 -2.4333219695146127e-03 0.0000000000000000e+00  -1.4023999206924612e-02 -2.3823199763032508e-03 0.0000000000000000e+00  -6.1772323981269944e-03 -2.3552130531199035e-03 0.0000000000000000e+00  1.4711155470169344e-03 -2.3493037721333335e-03 0.0000000000000000e+00  9.1281832546694971e-03 -2.3641313101052017e-03 0.0000000000000000e+00  1.7001219513099533e-02 -2.4014262851279463e-03 0.0000000000000000e+00  2.5303880265150409e-02 -2.4651447553573685e-03 0.0000000000000000e+00  2.5585372268108530e-02 -1.5435620477813859e-03 0.0000000000000000e+00  2.5295493702082738e-02 -6.2122708719463543e-04 0.0000000000000000e+00  1.8434483417828402e-02 -4.8466256593505280e-04 0.0000000000000000e+00  1.2038229372170384e-02 -3.3142153318427986e-04 0.0000000000000000e+00  5.9445490613436137e-03 -1.6807622487929796e-04 0.0000000000000000e+00  0.0000000000000000e+00 0.0000000000000000e+00 0.0000000000000000e+00  0.0000000000000000e+00 0.0000000000000000e+00 0.0000000000000000e+00  -4.3793883582980498e-03 1.8421827461397836e-04 0.0000000000000000e+00  -8.8811595644182357e-03 3.8299138850582506e-04 0.0000000000000000e+00  -1.3631521755812429e-02 6.1158908949959301e-04 0.0000000000000000e+00  -1.8761777457921375e-02 8.8629209432517625e-04 0.0000000000000000e+00  -1.8999925369248410e-02 -1.3556619298875112e-03 0.0000000000000000e+00  -1.8769365630910428e-02 -3.6010065782642116e-03 0.0000000000000000e+00  -1.1682591861524013e-02 -3.4742390234173857e-03 0.0000000000000000e+00  -4.9424003693787607e-03 -3.4023149839610425e-03 0.0000000000000000e+00  1.6322154327281615e-03 -3.3824609076544446e-03 0.0000000000000000e+00  8.2175230007875012e-03 -3.4140273355215715e-03 0.0000000000000000e+00  1.4989961655241701e-02 -3.4985629986092536e-03 0.0000000000000000e+00  2.2130834298186984e-02 -3.6398334180180432e-03 0.0000000000000000e+00  2.2363231024294578e-02 -1.5407227125527837e-03 0.0000000000000000e+00  2.2107184813701938e-02 5.5799835479951462e-04 0.0000000000000000e+00  1.6121949054361887e-02 3.7082160323180936e-04 0.0000000000000000e+00  1.0532842457494791e-02 2.2512749787773371e-04 0.0000000000000000e+00  5.2025296529600524e-03 1.0605878005781868e-04 0.0000000000000000e+00  0.0000000000000000e+00 0.0000000000000000e+00 0.0000000000000000e+00  0.0000000000000000e+00 0.0000000000000000e+00 0.0000000000000000e+00  -3.0615704521465511e-03 3.8370695186666496e-04 0.0000000000000000e+00  -6.2099823536577951e-03 7.8721387175667166e-04 0.0000000000000000e+00  -9.5345054123649950e-03 1.2308861981970857e-03 0.0000000000000000e+00  -1.3128006364712588e-02 1.7362107720970822e-03 0.0000000000000000e+00  -1.3303735138498930e-02 -1.3958008023760981e-03 0.0000000000000000e+00  -1.3145277905550114e-02 -4.5307157111186573e-03 0.0000000000000000e+00  -7.9765943659844858e-03 -4.3483969136941482e-03 0.0000000000000000e+00  -3.0546378310616590e-03 -4.2431131526094552e-03 0.0000000000000000e+00  1.7514529327381195e-03 -4.2119278914563001e-03 0.0000000000000000e+00  6.5696152398356427e-03 -4.2540853997031450e-03 0.0000000000000000e+00  1.1527848522062204e-02 -4.3708869305311045e-03 0.0000000000000000e+00  1.6757775261868106e-02 -4.5659245486219255e-03 0.0000000000000000e+00  1.6916373866638655e-02 -1.5304079430799740e-03 0.0000000000000000e+00  1.6718376400007739e-02 1.5041247760305110e-03 0.0000000000000000e+00  1.2205912666687274e-02 1.0602893744803639e-03 0.0000000000000000e+00  7.9808669738632258e-03 6.7515907186662305e-04 0.0000000000000000e+00  3.9439690092823816e-03 3.2818063432560503e-04 0.0000000000000000e+00  0.0000000000000000e+00 0.0000000000000000e+00 0.0000000000000000e+00  0.0000000000000000e+00 0.0000000000000000e+00 0.0000000000000000e+00  -1.3893551775959561e-03 5.0411663182064949e-04 0.0000000000000000e+00  -2.8215123178821451e-03 1.0308529177434514e-03 0.0000000000000000e+00  -4.3407443455456838e-03 1.6033748704326199e-03 0.0000000000000000e+00  -5.9929572440548182e-03 2.2459653565993871e-03 0.0000000000000000e+00  -6.0907455791913284e-03 -1.4431326523300116e-03 0.0000000000000000e+00  -6.0198891326096807e-03 -5.1340433452140531e-03 0.0000000000000000e+00  -3.3038344234724779e-03 -4.9165804653447361e-03 0.0000000000000000e+00  -7.1256321329870816e-04 -4.7895939071038824e-03 0.0000000000000000e+00  1.8233280740689156e-03 -4.7501734019048635e-03 0.0000000000000000e+00  4.3719884660593476e-03 -4.7974083116384646e-03 0.0000000000000000e+00  7.0017260479685447e-03 -4.9325119559639457e-03 0.0000000000000000e+00  9.7827242476132420e-03 -5.1588320265387550e-03 0.0000000000000000e+00  9.8526080871381566e-03 -1.5159659364011484e-03 0.0000000000000000