<?xml version="1.0"?>
<VTKFile type="UnstructuredGrid"  version="0.1"  >
<UnstructuredGrid>
<Piece  NumberOfPoints="589" NumberOfCells="1080">
<Points>
<DataArray  type="Float64"  NumberOfComponents="3"  format="ascii">-9 0 0  -8 0 0  -7 0 0  -6 0 0  -5 0 0  -4 0 0  -3 0 0  -2 0 0  -1 0 0  0 0 0  1 0 0  2 0 0  3 0 0  4 0 0  5 0 0  6 0 0  7 0 0  8 0 0  9 0 0  -9 2 0  -8.000005626730715 1.999991562111015 0  -7.000011783570442 1.999984171135933 0  -6.00001974235531 1.999978678220483 0  -5.000032431953624 1.999975460483622 0  -4.000019163943796 1.999981662742473 0  -3.000005555959068 1.999987574458521 0  -1.999998944730078 1.999993137723545 0  -0.9999978907189391 1.999997540568702 0  -3.14526747314307e-07 1.999999488767822 0  0.9999969919177836 1.999998195294992 0  1.999997137487802 1.999993991078708 0  3.000002198506656 1.999988856433892 0  4.000012789262688 1.999983433670958 0  5.000028113636347 1.999981438804034 0  6.000016884520729 1.999982071037759 0  7.000010023833534 1.999986114276331 0  8.000004786582029 1.999992468185128 0  9 2 0  -9 4 0  -8.000009132929145 3.999978936970226 0  -7.000016359378349 3.999960750334768 0  -6.000020561415455 3.999948255890881 0  -5.000021961554516 3.999944134109749 0  -4.000002628160227 3.999947118348932 0  -2.999989690423675 3.999963836812015 0  -1.999986367282415 3.99998557208397 0  -0.9999913870847099 4.000003071600027 0  -9.468038003694236e-07 4.000010169514846 0  0.9999892795571492 4.000004782875057 0  1.999983528216273 3.999990115728671 0  2.999986032301435 3.999970280886851 0  3.999998081765493 3.999950428713275 0  5.000016615151445 3.99994410413529 0  6.000016295259544 3.999950498309974 0  7.00001355383263 3.999962986288012 0  8.00000777033009 3.99998022517909 0  9 4 0  -9 6 0  -8.000020264528789 5.999954808237723 0  -7.000033032786064 5.999914562604789 0  -6.000032588065991 5.999884344681338 0  -5.000017298664714 5.999869015886554 0  -3.999979528432943 5.999893882087329 0  -2.999962409119918 5.999945650999347 0  -1.999969341080542 5.99999988315753 0  -0.9999864132855507 6.000030009520703 0  -3.651588194917892e-06 6.000036096480954 0  0.9999808740661563 6.000026461299123 0  1.999969070593916 5.99999972831441 0  2.999964575700702 5.999954552133578 0  3.99997334428617 5.999907784932713 0  5.000005312332331 5.999884816662184 0  6.000025392093234 5.999894552049712 0  7.000029251600579 5.999920856563773 0  8.000018700618172 5.999957840266988 0  9 6 0  -9 8 0  -8.00006137564422 7.99991090416396 0  -7.000102554586571 7.999828273903012 0  -6.000103991388426 7.999760886685766 0  -5.000049011970075 7.999723196743863 0  -3.999975737954856 7.9998376879554 0  -2.999989532912812 7.999972173170846 0  -2.000017319683244 8.000037592687235 0  -1.000019871795709 8.000044882806245 0  -3.637467968486098e-06 8.000046979467839 0  1.000008527191881 8.000053551692751 0  2.000003502603389 8.000026515112488 0  2.999971770836374 7.999980510241509 0  3.999960974140647 7.999866190575057 0  5.000032462202512 7.99973716304504 0  6.000099362913788 7.999772342747869 0  7.000102583313927 7.999836020341917 0  8.000062222618732 7.999914758957734 0  9 8 0  -9 10 0  -8.000183227005936 9.99984117525625 0  -7.000330994709146 9.99968107153525 0  -6.000401012343363 9.99951873528409 0  -5.000334422423426 9.999353979582235 0  -4.000217983207736 9.999724229078359 0  -3.000237581799679 10.00004250550862 0  -2.000190855264813 9.999987168667682 0  -1.000088824254237 9.999969415808756 0  -1.385892309147277e-05 9.999965089120687 0  1.000060403624603 9.999965472355871 0  2.000159198834535 9.99996367867268 0  3.000246146976191 10.00007758784627 0  4.000235195808094 9.999778509690483 0  5.000366489597756 9.999383760088151 0  6.000427956327059 9.999536217782925 0  7.000350177311423 9.999690982350447 0  8.000193151823488 9.999845694692736 0  9 10 0  -9 12 0  -8.000446699208931 11.99977664255903 0  -7.00087008184907 11.99954293487454 0  -6.001243781450614 11.99928649799275 0  -5.001535106636996 11.99899006394905 0  -4.001475221448647 11.99966634861796 0  -3.001529495347031 12.00033596339683 0  -2.00105382674043 12.00025451570144 0  -1.000523653462047 12.00021007909356 0  2.732418567104825e-05 12.00020080358362 0  1.000584065116703 12.0002280407113 0  2.001133938013704 12.00029983886566 0  3.001652081604259 12.00043638624558 0  4.001595201222144 11.99971811575838 0  5.001633078857707 11.99899395869694 0  6.001313047947018 11.99929103976774 0  7.000914514920025 11.99954626030532 0  8.000468438460706 11.99977832482264 0  9 12 0  -9 14 0  -8.000802989988967 13.99975360192942 0  -7.001607184298747 13.99949587268928 0  -6.002414821783433 13.99921447970756 0  -5.00323085705304 13.99889512661436 0  -4.003238889075151 13.99968731012772 0  -3.003244219288323 14.00048950696016 0  -2.002135660199384 14.0003739853833 0  -1.001042073442638 14.00031024573078 0  4.555337108858853e-05 14.00029060293976 0  1.00113584416341 14.00031253040218 0  2.002236826289127 14.00037723974407 0  3.003354805662193 14.0004882631474 0  4.003363706213375 13.9996905505199 0  5.003368625545145 13.99889781288764 0  6.002511084289419 13.99921365161567 0  7.001668404205599 13.99949437011138 0  8.000832785541753 13.99975262596906 0  9 14 0  -9 16 0  -8.001153851354559 15.99977594690015 0  -7.00232950597209 15.99954359422984 0  -6.003550648574199 15.99929449540975 0  -5.004844835864091 15.9990200483785 0  -4.004890517326871 15.99969821739754 0  -3.0048475421461 16.00037281496329 0  -2.003159183199177 16.00028681677163 0  -1.001537349134138 16.00023441889618 0  5.31463130206883e-05 16.00021447660027 0  1.001645582656504 16.00022624166747 0  2.003273263001403 16.00026973256687 0  3.00497162171095 16.00034556672348 0  4.005020296726082 15.99967031138124 0  5.004977912886607 15.9989945284555 0  6.003647876317642 15.99927698127539 0  7.00239295822078 15.99953249614068 0  8.001185150910173 15.99977054152502 0  9 16 0  -9 18 0  -8.001416851257378 17.99983150638271 0  -7.002868718230248 17.99965836464825 0  -6.004392435646439 17.99947600749885 0  -5.006028472107531 17.99928005337954 0  -4.006097810803578 17.99970112843218 0  -3.006031219883297 18.00012165740204 0  -2.003918630223903 18.00006565012259 0  -1.001908220472036 18.00002918753147 0  5.293261454803707e-05 18.00001193338556 0  1.002015194474231 18.00001345271239 0  2.004028860700139 18.00003323824585 0  3.006146610496045 18.00007061150648 0  4.006217277998776 17.99965507589761 0  5.006150068268519 17.99924075795485 0  6.004482137533389 17.99944821481971 0  7.002927778589125 17.99964059352994 0  8.001446154484606 17.99982283868749 0  9 18 0  -9 20 0  -8.001539188239253 19.99990564857355 0  -7.003119342274275 19.99981001271232 0  -6.004782995928202 19.99971194295054 0  -5.006575822005527 19.99961055776083 0  -4.006655139148417 19.9997015297018 0  -3.006577046396928 19.99979191918406 0  -2.004271639324543 19.99976660324525 0  -1.002083151074849 19.99974742996123 0  4.823312762050919e-05 19.99973460245645 0  1.002180161945606 19.999727894812 0  2.004370252220093 19.99972666684969 0  3.006678230595756 19.9997298264792 0  4.006757809184297 19.99964741572053 0  5.006679344524259 19.99956585894977 0  6.00485999403382 19.99967980429793 0  7.003170357382481 19.99978924575547 0  8.001564598583284 19.99989546229581 0  8.999999999993491 19.99999999999801 0  -9 22 0  -8.001497107072895 21.99998491723619 0  -7.003034787415869 21.99997139401128 0  -6.004654891505516 21.99996114274526 0  -5.006401817192392 21.99995618480099 0  -4.006479572434541 21.99969864563967 0  -3.006402537220572 21.99944048025591 0  -2.004159285720891 21.99944308672026 0  -1.002030757370832 21.99944039896386 0  4.134810165619141e-05 21.99943290141892 0  1.002113559080571 21.99942051898365 0  2.00424238034952 21.99940262744854 0  3.006486042692405 21.99937804293037 0  4.006562611038019 21.99964491563355 0  5.006484425533837 21.99991230661027 0  6.004716956593946 21.99992940280833 0  7.003076201577539 21.99995078681508 0  8.001517821033293 21.99997477922597 0  9 22 0  -9 24 0  -8.001292162932565 24.00005794825772 0  -7.002619331443667 24.0001196869811 0  -6.004017494693342 24.00018916475306 0  -5.005524560423961 24.00027065461985 0  -4.005591625774828 23.99969281090739 0  -3.005525521150478 23.99911442282273 0  -2.003590283719709 23.99914065907199 0  -1.001753708585811 23.99915252373073 0  3.409253115321712e-05 23.99915065530423 0  1.001821659494737 23.99913508816714 0  2.003657512082727 23.99910525515392 0  3.005591478987186 23.99905998309199 0  4.005655546855153 23.99964635458498 0  5.005587127712873 24.00023305590424 0  6.00406510376643 24.00016183821311 0  7.002651382246412 24.00010188481012 0  8.001308276092718 24.00004917200358 0  9 24 0  -9 26 0  -8.000946548177154 26.00011582912934 0  -7.001918617767891 26.00023703047972 0  -6.002942418581988 26.00036913712026 0  -5.004045435737506 26.00051801282268 0  -4.004094864928353 25.9996845366867 0  -3.00404716770801 25.99885065094563 0  -2.002628794916888 25.99889551593462 0  -1.001282543123978 25.99891937843789 0  2.78653051652728e-05 25.99892299858323 0  1.001337789088318 25.99890650936365 0  2.002682566508928 25.99886941752731 0  3.004098415345403 25.99881060141217 0  4.004142947986759 25.99965055498213 0  5.004091497686262 26.00049068396302 0  6.002978088847149 26.00034921849703 0  7.001942917711681 26.00022402655856 0  8.00095884813809 26.0001094095801 0  9 26 0  -9 28 0  -8.000498095479983 28.0001522345087 0  -7.001009607403515 28.00031076038172 0  -6.001548334718869 28.0004820321993 0  -5.002128699369154 28.00067283527627 0  -4.00215576846471 27.9996746398617 0  -3.002131440755583 27.99867623995353 0  -2.001380937778614 27.99873416983277 0  -1.000668961822887 27.99876698596006 0  2.36713595164629e-05 27.99877555776089 0  1.000715659418929 27.99876011360544 0  2.001425677525425 27.99872024138325 0  3.002172842808194 27.99865488724639 0  4.002193327448071 27.99965662049459 0  5.002163845192343 28.00065844418534 0  6.001576105599209 28.00047152172034 0  7.001028778850599 28.0003038876849 0  8.000507873721226 
[...]
<PointData  Vectors="f_44-2"> 
<DataArray  type="Float64"  Name="f_44-2"  NumberOfComponents="3" format="ascii">0.0000000000000000e+00 0.0000000000000000e+00 0.0000000000000000e+00  0.0000000000000000e+00 0.0000000000000000e+00 0.0000000000000000e+00  0.0000000000000000e+00 0.0000000000000000e+00 0.0000000000000000e+00  0.0000000000000000e+00 0.0000000000000000e+00 0.0000000000000000e+00  0.0000000000000000e+00 0.0000000000000000e+00 0.0000000000000000e+00  0.0000000000000000e+00 0.0000000000000000e+00 0.0000000000000000e+00  0.0000000000000000e+00 0.0000000000000000e+00 0.0000000000000000e+00  0.0000000000000000e+00 0.0000000000000000e+00 0.0000000000000000e+00  0.0000000000000000e+00 0.0000000000000000e+00 0.0000000000000000e+00  0.0000000000000000e+00 0.0000000000000000e+00 0.0000000000000000e+00  0.0000000000000000e+00 0.0000000000000000e+00 0.0000000000000000e+00  0.0000000000000000e+00 0.0000000000000000e+00 0.0000000000000000e+00  0.0000000000000000e+00 0.0000000000000000e+00 0.0000000000000000e+00  0.0000000000000000e+00 0.0000000000000000e+00 0.0000000000000000e+00  0.0000000000000000e+00 0.0000000000000000e+00 0.0000000000000000e+00  0.0000000000000000e+00 0.0000000000000000e+00 0.0000000000000000e+00  0.0000000000000000e+00 0.0000000000000000e+00 0.0000000000000000e+00  0.0000000000000000e+00 0.0000000000000000e+00 0.0000000000000000e+00  0.0000000000000000e+00 0.0000000000000000e+00 0.0000000000000000e+00  0.0000000000000000e+00 0.0000000000000000e+00 0.0000000000000000e+00  -3.7946802541009674e-05 -5.7565873363329928e-05 0.0000000000000000e+00  -7.9577643577331036e-05 -1.0798329505968560e-04 0.0000000000000000e+00  -1.3365982262065194e-04 -1.4544345846612290e-04 0.0000000000000000e+00  -2.2032051864688112e-04 -1.6738161783638617e-04 0.0000000000000000e+00  -1.2987542344850361e-04 -1.2518894369156026e-04 0.0000000000000000e+00  -3.6965732545556600e-05 -8.4900874623173152e-05 0.0000000000000000e+00  8.1892551051950969e-06 -4.6975989147764175e-05 0.0000000000000000e+00  1.5418428156672453e-05 -1.6999298628128195e-05 0.0000000000000000e+00  -1.0334864531494433e-06 -3.8504270344929029e-06 0.0000000000000000e+00  -1.9162772994478252e-05 -1.2967452255303385e-05 0.0000000000000000e+00  -1.7593688450989677e-05 -4.2152391693901027e-05 0.0000000000000000e+00  1.8031481431552698e-05 -7.7902965586953087e-05 0.0000000000000000e+00  9.2159813501429736e-05 -1.1607320775688942e-04 0.0000000000000000e+00  1.9967313835305203e-04 -1.3142806421481245e-04 0.0000000000000000e+00  1.2050036397419298e-04 -1.2613085787888687e-04 0.0000000000000000e+00  7.1721899853074514e-05 -9.7366948409830531e-05 0.0000000000000000e+00  3.4277311720583601e-05 -5.2727969300198915e-05 0.0000000000000000e+00  0.0000000000000000e+00 0.0000000000000000e+00 0.0000000000000000e+00  0.0000000000000000e+00 0.0000000000000000e+00 0.0000000000000000e+00  -6.1156141199656875e-05 -1.4371993846266294e-04 0.0000000000000000e+00  -1.0935022101761785e-04 -2.6779144004163635e-04 0.0000000000000000e+00  -1.3700500769570792e-04 -3.5297264877845929e-04 0.0000000000000000e+00  -1.4568496159476417e-04 -3.8091971677442640e-04 0.0000000000000000e+00  -1.3670141829575222e-05 -3.6108472933298790e-04 0.0000000000000000e+00  7.4780731408862050e-05 -2.4718989171104515e-04 0.0000000000000000e+00  9.7605601442827790e-05 -9.8926652336796757e-05 0.0000000000000000e+00  6.3487779669813354e-05 2.0373621025362794e-05 0.0000000000000000e+00  -1.5996303108304514e-06 6.8454339686119611e-05 0.0000000000000000e+00  -6.8046868948547034e-05 3.0828174154729954e-05 0.0000000000000000e+00  -1.0674585086896506e-04 -7.0696806246797300e-05 0.0000000000000000e+00  -8.8542368011459570e-05 -2.0809828982513951e-04 0.0000000000000000e+00  -4.5279957386783939e-06 -3.4627570992415202e-04 0.0000000000000000e+00  1.2409467676171380e-04 -3.9242289442331896e-04 0.0000000000000000e+00  1.1942245447462735e-04 -3.4612487466652276e-04 0.0000000000000000e+00  9.8106929089544949e-05 -2.5822823416461770e-04 0.0000000000000000e+00  5.5883252509413613e-05 -1.3780573004717670e-04 0.0000000000000000e+00  0.0000000000000000e+00 0.0000000000000000e+00 0.0000000000000000e+00  0.0000000000000000e+00 0.0000000000000000e+00 0.0000000000000000e+00  -1.3620656743846413e-04 -3.0844004859156734e-04 0.0000000000000000e+00  -2.2127931567130079e-04 -5.8313509794036126e-04 0.0000000000000000e+00  -2.1624947446587998e-04 -7.8941362622282076e-04 0.0000000000000000e+00  -1.0995580999388207e-04 -8.9403387527824227e-04 0.0000000000000000e+00  1.4828268502825584e-04 -7.2495961961161306e-04 0.0000000000000000e+00  2.6551540959169760e-04 -3.7189346021048890e-04 0.0000000000000000e+00  2.1869652391844562e-04 -1.8793765717589944e-06 0.0000000000000000e+00  1.0258670125122446e-04 2.0373327442383071e-04 0.0000000000000000e+00  -1.4839723600999277e-05 2.4490309796150114e-04 0.0000000000000000e+00  -1.2042241581744448e-04 1.7821005248475308e-04 0.0000000000000000e+00  -2.0095993240626863e-04 -6.2556797646976239e-06 0.0000000000000000e+00  -2.3130779565031453e-04 -3.1810688367911254e-04 0.0000000000000000e+00  -1.7041119755646864e-04 -6.4156234842825536e-04 0.0000000000000000e+00  5.0104295592925516e-05 -8.0190299331949670e-04 0.0000000000000000e+00  1.8491721844386344e-04 -7.3248968602578524e-04 0.0000000000000000e+00  2.0811699769407639e-04 -5.4916588693317166e-04 0.0000000000000000e+00  1.3211654213679094e-04 -2.9239072773713001e-04 0.0000000000000000e+00  0.0000000000000000e+00 0.0000000000000000e+00 0.0000000000000000e+00  0.0000000000000000e+00 0.0000000000000000e+00 0.0000000000000000e+00  -4.1562694344374960e-04 -6.0801204240694222e-04 0.0000000000000000e+00  -6.9356962009959320e-04 -1.1720069491075293e-03 0.0000000000000000e+00  -7.0052002644945270e-04 -1.6323515490246064e-03 0.0000000000000000e+00  -3.2255330870348324e-04 -1.8905990394392370e-03 0.0000000000000000e+00  1.7749753313585904e-04 -1.1096823876351762e-03 0.0000000000000000e+00  8.4466494344207226e-05 -1.9278985662017037e-04 0.0000000000000000e+00  -1.0376336487504919e-04 2.5340194418082542e-04 0.0000000000000000e+00  -1.1970605561478403e-04 3.0360689993236018e-04 0.0000000000000000e+00  -7.6221500065739281e-06 3.1823730865858304e-04 0.0000000000000000e+00  7.6176323254190258e-05 3.6367858682545025e-04 0.0000000000000000e+00  4.1559371023286977e-05 1.7727448675631751e-04 0.0000000000000000e+00  -1.7689157187225738e-04 -1.3996810300188995e-04 0.0000000000000000e+00  -2.5153086876704151e-04 -9.2812352792698088e-04 0.0000000000000000e+00  2.4030583749937544e-04 -1.8184180567151704e-03 0.0000000000000000e+00  6.9676281121460815e-04 -1.5743069723568729e-03 0.0000000000000000e+00  7.1481508582625132e-04 -1.1337643627404330e-03 0.0000000000000000e+00  4.3271772619130977e-04 -5.8932900157572684e-04 0.0000000000000000e+00  0.0000000000000000e+00 0.0000000000000000e+00 0.0000000000000000e+00  0.0000000000000000e+00 0.0000000000000000e+00 0.0000000000000000e+00  -1.2451346336803694e-03 -1.0831297090435291e-03 0.0000000000000000e+00  -2.2489704018380002e-03 -2.1750352029670725e-03 0.0000000000000000e+00  -2.7237968779004304e-03 -3.2823422041986560e-03 0.0000000000000000e+00  -2.2687158882678357e-03 -4.4065227827934494e-03 0.0000000000000000e+00  -1.4763556174629240e-03 -1.8847211601256974e-03 0.0000000000000000e+00  -1.6078332383578835e-03 2.8182576116237817e-04 0.0000000000000000e+00  -1.2854055675605980e-03 -9.4291296798318651e-05 0.0000000000000000e+00  -5.8726331097607538e-04 -2.1505668616651877e-04 0.0000000000000000e+00  -7.3072628183888677e-05 -2.4460277580234789e-04 0.0000000000000000e+00  4.3712009425590369e-04 -2.4207760979719391e-04 0.0000000000000000e+00  1.1168788387802408e-03 -2.5499495683597312e-04 0.0000000000000000e+00  1.7152311310438674e-03 5.2961301607673354e-04 0.0000000000000000e+00  1.6379757559998979e-03 -1.5301782598397175e-03 0.0000000000000000e+00  2.5406177327004825e-03 -4.2510144183400770e-03 0.0000000000000000e+00  2.9608384407515190e-03 -3.2007809213760487e-03 0.0000000000000000e+00  2.4212330217944071e-03 -2.1333371248772439e-03 0.0000000000000000e+00  1.3352292124613303e-03 -1.0654643700355180e-03 0.0000000000000000e+00  0.0000000000000000e+00 0.0000000000000000e+00 0.0000000000000000e+00  0.0000000000000000e+00 0.0000000000000000e+00 0.0000000000000000e+00  -3.0368213693872195e-03 -1.5220248009370971e-03 0.0000000000000000e+00  -5.9154817986877186e-03 -3.1145674665663536e-03 0.0000000000000000e+00  -8.4574349693369785e-03 -4.8619969378698820e-03 0.0000000000000000e+00  -1.0440821627718344e-02 -6.8819523439972727e-03 0.0000000000000000e+00  -1.0039059470634815e-02 -2.2842834178309923e-03 0.0000000000000000e+00  -1.0409604112717793e-02 2.2666168799097904e-03 0.0000000000000000e+00  -7.1347176796031477e-03 1.7146609495004314e-03 0.0000000000000000e+00  -3.4957464109440064e-03 1.4166751711602353e-03 0.0000000000000000e+00  2.8030751590582775e-04 1.3597658729686398e-03 0.0000000000000000e+00  4.0925266541972207e-03 1.5533059496385246e-03 0.0000000000000000e+00  7.8559523288538290e-03 2.0533389639236280e-03 0.0000000000000000e+00  1.1400970001464930e-02 2.9992865503697115e-03 0.0000000000000000e+00  1.1003543951303795e-02 -1.9496397377174316e-03 0.0000000000000000e+00  1.1260657887203531e-02 -6.9406001203142255e-03 0.0000000000000000e+00  9.0573848725248145e-03 -4.8936345622517009e-03 0.0000000000000000e+00  6.3098275235429265e-03 -3.1331149838655743e-03 0.0000000000000000e+00  3.2325522742027418e-03 -1.5310308473471211e-03 0.0000000000000000e+00  0.0000000000000000e+00 0.0000000000000000e+00 0.0000000000000000e+00  0.0000000000000000e+00 0.0000000000000000e+00 0.0000000000000000e+00  -5.4549172638860008e-03 -1.6775799540982379e-03 0.0000000000000000e+00  -1.0918837367298572e-02 -3.4323563718597484e-03 0.0000000000000000e+00  -1.6408253318384448e-02 -5.3483395497306383e-03 0.0000000000000000e+00  -2.1957987348645340e-02 -7.5229297987321597e-03 0.0000000000000000e+00  -2.2021057616043584e-02 -2.1515501556164714e-03 0.0000000000000000e+00  -2.2058313243071611e-02 3.2876888499562503e-03 0.0000000000000000e+00  -1.4452145514796004e-02 2.5100681291077573e-03 0.0000000000000000e+00  -6.9576885307872233e-03 2.0861677852506803e-03 0.0000000000000000e+00  4.8997022434242154e-04 1.9637237124301102e-03 0.0000000000000000e+00  7.9522371758605215e-03 2.1258588706843172e-03 0.0000000000000000e+00  1.5486013158280527e-02 2.5813632412724063e-03 0.0000000000000000e+00  2.3136257579482969e-02 3.3549060589413344e-03 0.0000000000000000e+00  2.3189937768577442e-02 -2.1477255509938457e-03 0.0000000000000000e+00  2.3219771205668111e-02 -7.6164336948280282e-03 0.0000000000000000e+00  1.7316068599361436e-02 -5.4357991082059874e-03 0.0000000000000000e+00  1.1508423542905325e-02 -3.4962182115574132e-03 0.0000000000000000e+00  5.7455129401898387e-03 -1.7107786802000504e-03 0.0000000000000000e+00  0.0000000000000000e+00 0.0000000000000000e+00 0.0000000000000000e+00  0.0000000000000000e+00 0.0000000000000000e+00 0.0000000000000000e+00  -7.8284863886637097e-03 -1.5235022900991293e-03 0.0000000000000000e+00  -1.5806180728200801e-02 -3.1035262530111764e-03 0.0000000000000000e+00  -2.4095215499365257e-02 -4.7975588106199491e-03 0.0000000000000000e+00  -3.2884114913183236e-02 -6.6642002087960025e-03 0.0000000000000000e+00  -3.3202295009318476e-02 -2.0862050939690004e-03 0.0000000000000000e+00  -3.2909777872783298e-02 2.4678525998091125e-03 0.0000000000000000e+00  -2.1344792142703743e-02 1.8974326135342309e-03 0.0000000000000000e+00  -1.0242110969533631e-02 1.5553453465848319e-03 0.0000000000000000e+00  6.4155968382113133e-04 1.4343400700944143e-03 0.0000000000000000e+00  1.1536228757288523e-02 1.5297676955410996e-03 0.0000000000000000e+00  2.2671864961599262e-02 1.8421180299940966e-03 0.0000000000000000e+00  3.4293189169433615e-02 2.3758419842991518e-03 0.0000000000000000e+00  3.4621019714698664e-02 -2.2934271134542883e-03 0.0000000000000000e+00  3.4326900275111503e-02 -6.9658180873655414e-03 0.0000000000000000e+00  2.5165143944951465e-02 -5.0103986094122942e-03 0.0000000000000000e+00  1.6512706258781838e-02 -3.2404128097566574e-03 0.0000000000000000e+00  8.1796578022878888e-03 -1.5906499839412167e-03 0.0000000000000000e+00  0.0000000000000000e+00 0.0000000000000000e+00 0.0000000000000000e+00  0.0000000000000000e+00 0.0000000000000000e+00 0.0000000000000000e+00  -9.5965280311432789e-03 -1.1431101334570617e-03 0.0000000000000000e+00  -1.9431754886452546e-02 -2.3177618511147475e-03 0.0000000000000000e+00  -2.9756830236574393e-02 -3.5549007396510480e-03 0.0000000000000000e+00  -4.0847554106703356e-02 -4.8842380911951746e-03 0.0000000000000000e+00  -4.1324027139401857e-02 -2.0703093602610447e-03 0.0000000000000000e+00  -4.0870010410066243e-02 7.4034532892630384e-04 0.0000000000000000e+00  -2.6415191922750214e-02 3.7725402697855810e-04 0.0000000000000000e+00  -1.2663729086424325e-02 1.4602896283741812e-04 0.0000000000000000e+00  7.4863580567269196e-04 4.4991292864701881e-05 0.0000000000000000e+00  1.4168350482461222e-02 7.1622764904399110e-05 0.0000000000000000e+00  2.7941326003725286e-02 2.2277072006020491e-04 0.0000000000000000e+00  4.2430008597958431e-02 4.9395649992032870e-04 0.0000000000000000e+00  4.2910565357196014e-02 -2.3994272017446167e-03 0.0000000000000000e+00  4.2447893688335070e-02 -5.2839681306508443e-03 0.0000000000000000e+00  3.0947904662366937e-02 -3.8411088650084266e-03 0.0000000000000000e+00  2.0221217608748149e-02 -2.5023907213468474e-03 0.0000000000000000e+00  9.9898389884180028e-03 -1.2335863641398941e-03 0.0000000000000000e+00  0.0000000000000000e+00 0.0000000000000000e+00 0.0000000000000000e+00  0.0000000000000000e+00 0.0000000000000000e+00 0.0000000000000000e+00  -1.0401441731673282e-02 -6.3668782873718872e-04 0.0000000000000000e+00  -2.1081444345817518e-02 -1.2818262235339982e-03 0.0000000000000000e+00  -3.2329162452683746e-02 -1.9429087719693694e-03 0.0000000000000000e+00  -4.4454873944117873e-02 -2.6256115074478432e-03 0.0000000000000000e+00  -4.4996945243665695e-02 -2.0668349924242565e-03 0.0000000000000000e+00  -4.4465135851651391e-02 -1.5121920954391055e-03 0.0000000000000000e+00  -2.8704228370798099e-02 -1.6662632730308066e-03 0.0000000000000000e+00  -1.3744193810661975e-02 -1.7797482699298129e-03 0.0000000000000000e+00  8.2567278807025473e-04 -1.8507637792133328e-03 0.0000000000000000e+00  1.5401140201298503e-02 -1.8804594635403280e-03 0.0000000000000000e+00  3.0377777180782231e-02 -1.8729090484761236e-03 0.0000000000000000e+00  4.6165841240947671e-02 -1.8353701482683733e-03 0.0000000000000000e+00  4.6708681722530454e-02 -2.4486646142364878e-03 0.0000000000000000e+00  4.6169637248209112e-02 -3.0562503379136506e-03 0.0000000000000000e+00  3.3607597486662290e-02 -2.2546412113683932e-03 0.0000000000000000e+00  2.1930040577822388e-02 -1.4841687310089698e-03 0.0000000000000000e+00  1.0824628132214005e-02 -7.3623487332884273e-04 0.0000000000000000e+00  -1.2249799180192146e-10 0.0000000000000000e+00 0.0000000000000000e+00  0.0000000000000000e+00 0.0000000000000000e+00 0.0000000000000000e+00  -1.0084401432276161e-02 -9.6618957412665101e-05 0.0000000000000000e+00  -2.0443861376392300e-02 -1.8214598166581831e-04 0.0000000000000000e+00  -3.1362054697563847e-02 -2.4439818636580143e-04 0.0000000000000000e+00  -4.3139694361871789e-02 -2.6914843127993492e-04 0.0000000000000000e+00  -4.3670378374961530e-02 -2.0842093258946269e-03 0.0000000000000000e+00  -4.3147974676024645e-02 -3.9044642347390969e-03 0.0000000000000000e+00  -2.7822108571192654e-02 -3.8707334172994007e-03 0.0000000000000000e+00  -1.3279331529495177e-02 -3.8738844564183712e-03 0.0000000000000000e+00  8.8025869747547947e-04 -3.9102788130525520e-03 0.0000000000000000e+00  1.5044372074407342e-02 -3.9801237094234509e-03 0.0000000000000000e+00  2.9600649105526834e-02 -4.0873976216887088e-03 0.0000000000000000e+00  4.4948797619675254e-02 -4.2399175305222444e-03 0.0000000000000000e+00  4.5470774953378472e-02 -2.4610882434215574e-03 0.0000000000000000e+00  4.4932602729696659e-02 -6.7964263976352075e-04 0.0000000000000000e+00  3.2700508305924789e-02 -5.4270512800755973e-04 0.0000000000000000e+00  2.1333122690947198e-02 -3.7644814737544348e-04 0.0000000000000000e+00  1.0528079583772136e-02 -1.9240247677406239e-04 0.0000000000000000e+00  0.0000000000000000e+00 0.0000000000000000e+00 0.0000000000000000e+00  0.0000000000000000e+00 0.0000000000000000e+00 0.0000000000000000e+00  -8.6591943988782068e-03 3.9909106399279762e-04 0.0000000000000000e+00  -1.7554561292311990e-02 8.2442903266453037e-04 0.0000000000000000e+00  -2.6929247000154779e-02 1.3040428456340205e-03 0.0000000000000000e+00  -3.7039130207904690e-02 1.8669613663392073e-03 0.0000000000000000e+00  -3.7497970524666024e-02 -2.1238725584585673e-03 0.0000000000000000e+00  -3.7053474786582739e-02 -6.1198558796529967e-03 0.0000000000000000e+00  -2.3839027258668283e-02 -5.9289153937188638e-03 0.0000000000000000e+00  -1.1296205193420660e-02 -5.8362173287472129e-03 0.0000000000000000e+00  9.1749995885611159e-04 -5.8371753300974685e-03 0.0000000000000000e+00  1.3135005963046197e-02 -5.9313467111966021e-03 0.0000000000000000e+00  2.5689235712846262e-02 -6.1223620445236835e-03 0.0000000000000000e+00  3.8922316437961173e-02 -6.4179423014828390e-03 0.0000000000000000e+00  3.9357184821465371e-02 -2.4489352849295419e-03 0.0000000000000000e+00  3.8883149299735957e-02 1.5208708550066210e-03 0.0000000000000000e+00  2.8307018742672208e-02 1.0517627912871956e-03 0.0000000000000000e+00  1.8470424139647355e-02 6.5996926838592996e-04 0.0000000000000000e+00  9.1162223692624472e-03 3.1784248508455503e-04 0.0000000000000000e+00  0.0000000000000000e+00 0.0000000000000000e+00 0.0000000000000000e+00  0.0000000000000000e+00 0.0000000000000000e+00 0.0000000000000000e+00  -6.2794201142310907e-03 7.8997942845223258e-04 0.0000000000000000e+00  -1.2729863040659531e-02 1.6170055394273007e-03 0.0000000000000000e+00  -1.9527246275589941e-02 2.5192499834115808e-03 0.0000000000000000e+00  -2.6855845307352130e-02 3.5368657083682431e-03 0.0000000000000000e+00  -2.7196538154159861e-02 -2.1848025364949179e-03 0.0000000000000000e+00  -2.6881152431593742e-02 -7.9107418786211192e-03 0.0000000000000000e+00  -1.7201226460451892e-02 -7.5972306104247411e-03 0.0000000000000000e+00  -8.0103148130912828e-03 -7.4267527670299092e-03 0.0000000000000000e+00  9.4083039495129782e-04 -7.3940839097842550e-03 0.0000000000000000e+00  9.8951616022936572e-03 -7.4981398936142755e-03 0.0000000000000000e+00  1.9095761942672321e-02 -7.7421481986524260e-03 0.0000000000000000e+00  2.8791468673970526e-02 -8.1335627424156988e-03 0.0000000000000000e+00  2.9090629113796874e-02 -2.4227907927772204e-03 0.0000000000000000e+00  2.8729171876932812e-02 3.2876797885229843e-03 0.0000000000000000e+00  2.0927958747048159e-02 2.3369700743686704e-03 0.0000000000000000e+00  1.3661530075876595e-02 1.4977853825228766e-03 0.0000000000000000e+00  6.7445497996833515e-03 7.3105075001983033e-04 0.0000000000000000e+00  0.0000000000000000e+00 0.0000000000000000e+00 0.0000000000000000e+00  0.0000000000000000e+00 0.0000000000000000e+00 0.0000000000000000e+00  -3.2050504206394027e-03 1.0328681471642126e-03 0.0000000000000000e+00  -6.4982654016012276e-03 2.1088157549202409e-03 0.0000000000000000e+00  -9.9707363601127409e-03 3.2720264716267510e-03 0.0000000000000000e+00  -1.3717429263177384e-02 4.5689365646359179e-03 0.0000000000000000e+00  -1.3907749162223927e-02 -2.2616267134480186e-03 0.0000000000000000e+00  -1.3754432291226068e-02 -9.0946263403569819e-03 0.0000000000000000e+00  -8.6367519612531290e-03 -8.6964313159444868e-03 0.0000000000000000e+00  -3.7786303049362501e-03 -8.4690989825416951e-03 0.0000000000000000e+00  9.5282728577976645e-04 -8.4069104517975855e-03 0.0000000000000000e+00  5.6869932038037859e-03 -8.5082500210114567e-03 0.0000000000000000e+00  1.0553231520469943e-02 -8.7758313463311283e-03 0.0000000000000000e+00  1.5684214867165973e-02 -9.2166875435251740e-03 0.0000000000000000e+00  1.5817319305964410e-02 -2.3889647626699523e-03 0.0000000000000000e+