<?xml version="1.0"?>
<VTKFile type="UnstructuredGrid"  version="0.1"  >
<UnstructuredGrid>
<Piece  NumberOfPoints="589" NumberOfCells="1080">
<Points>
<DataArray  type="Float64"  NumberOfComponents="3"  format="ascii">-9 0 0  -8 0 0  -7 0 0  -6 0 0  -5 0 0  -4 0 0  -3 0 0  -2 0 0  -1 0 0  0 0 0  1 0 0  2 0 0  3 0 0  4 0 0  5 0 0  6 0 0  7 0 0  8 0 0  9 0 0  -9 2 0  -7.99999491089492 2.000006961117482 0  -6.999989384005787 2.000013094009223 0  -5.999982378405794 2.000017728351241 0  -4.999971502668227 2.000020576241959 0  -3.9999825309411 2.000015278623583 0  -2.999993876541238 2.000010407557488 0  -1.999999520038626 2.000005897031579 0  -1.000000682878663 2.000002311000573 0  9.843856873338935e-07 2.000000662278789 0  1.000002959394286 2.000001540332341 0  2.000002833025865 2.000004647863191 0  2.999999035003917 2.000008392152973 0  3.99999120347496 2.000012140803155 0  4.999980116912589 2.000012828218166 0  5.999988367213496 2.000012730166609 0  6.999993212379631 2.000009990490527 0  7.999996784792585 2.000005453805279 0  9 2 0  -9.000000000009988 4 0  -7.99999157284371 4.000017235406729 0  -6.999984682846319 4.00003218242234 0  -5.999980237324054 4.000042602618249 0  -4.999978078698859 4.000046369716238 0  -3.999993808968384 4.000043742775015 0  -3.000004410665159 4.000030228614166 0  -2.000007356621361 4.000012724097694 0  -1.000003665040711 3.999998605395861 0  3.65486473120318e-06 3.99999270807879 0  1.000011207322263 3.999996541891118 0  2.000015718965043 4.000007501973585 0  3.00001394752356 4.0000222701907 0  4.000004939832216 4.00003667839048 0  4.999991025110483 4.00004003524922 0  5.999990354946882 4.00003602694833 0  6.99999151574443 4.000027169228105 0  7.999994998340394 4.000014576314623 0  9 4 0  -9 6 0  -7.99998208575244 6.000036664524362 0  -6.999970203743729 6.000069379273389 0  -5.999968948688623 6.000094090369569 0  -4.999979611216258 6.0001069433895 0  -4.000009861285656 6.000086759496368 0  -3.000023595238245 6.00004519125349 0  -2.000018072357164 6.000001753556051 0  -1.000004580140843 5.999977742696409 0  8.858048331143198e-06 5.999972734012901 0  1.000020744604389 5.999979907526953 0  2.000029721541544 6.000000074562241 0  3.000033171124044 6.000034157553958 0  4.000026540630529 6.000069104721923 0  5.000002033874245 6.000085353079525 0  5.999985018780809 6.000078722366794 0  6.999980531629366 6.000059289802553 0  7.999987135232753 6.000031633421816 0  9 6 0  -9 8 0  -7.999948466928974 8.000071898499883 0  -6.999913214659032 8.000138596871414 0  -5.999909988625184 8.000193016375192 0  -4.999952158370597 8.000223482494279 0  -4.000010756735535 8.000131345104226 0  -2.999998969576749 8.000023327890506 0  -1.999976177937541 7.9999713643741 0  -0.9999739967046483 7.999966310188102 0  1.287529920773367e-05 7.999964988227902 0  1.000002713567219 7.999959828545238 0  2.00000602698244 7.999979988997374 0  3.000030193698232 8.000014442585927 0  4.000038184107594 8.000101245591878 0  4.99998297973357 8.000199292048784 0  5.99992956664748 8.000172632997156 0  6.999925179903346 8.000124311488362 0  7.999954223651589 8.000064603031054 0  9 8 0  -9 10 0  -7.999849695543272 10.00012795652417 0  -6.999728084256887 10.00025696635406 0  -5.999669416632466 10.00038781594112 0  -4.999721285788383 10.00052069854303 0  -3.999814904823661 10.00022160411441 0  -2.999797992250666 9.999964725794172 0  -1.999834925562864 10.00001158255718 0  -0.9999168619769923 10.00002669269497 0  2.357708088629046e-05 10.00003036694731 0  0.9999650411705008 10.00002982480652 0  1.99988789580472 10.00003034007074 0  2.999818965342722 9.999941353230048 0  3.999826314442058 10.000169541937 0  4.999725915481203 10.00047074183894 0  5.999677951955824 10.00035323679431 0  6.999736070705374 10.00023490492631 0  7.999854358832747 10.00011716596528 0  9 10 0  -9 12 0  -7.999636014468837 12.00017985197909 0  -6.999290955774017 12.00036806245414 0  -5.998986265706226 12.0005746330307 0  -4.998748384252729 12.00081354724751 0  -3.998796983748468 12.00026564520488 0  -2.998752320712171 11.99972265995715 0  -1.999121706214784 11.99979175081383 0  -0.9995364882854025 11.9998311627026 0  3.055242864858324e-05 11.99984248640002 0  0.9995912386047611 11.99982487921569 0  1.999154999359536 11.99977227588764 0  2.998740172598455 11.99966920252752 0  3.998781852024639 12.0002148172969 0  4.998754227821417 12.00076444532128 0  5.999001732966971 12.00053724547671 0  6.999306147304821 12.00034318661824 0  7.999644998915715 12.00016747386029 0  9 12 0  -9 14 0  -7.999346341419344 14.00019837106322 0  -6.998691897151822 14.00040581792078 0  -5.998035101087014 14.00063222104491 0  -4.997372070908644 14.00088903102371 0  -3.997366344607389 14.00024473999557 0  -2.997361300475701 13.99959204004228 0  -1.99822743636788 13.99969074013301 0  -0.999083661189334 13.99974807860043 0  6.296897940195954e-05 13.99977041138912 0  0.9992054886276621 13.99976001564628 0  1.998337157048758 13.99971622907207 0  2.997452323812912 13.99963657020843 0  3.997442719308904 14.00023372243441 0  4.997440623018439 14.00082670724179 0  5.998097276204785 14.0005888854597 0  6.998738125396805 14.00037819964992 0  7.999370825014232 14.00018488890181 0  9 14 0  -9 16 0  -7.999059420384651 16.00018062552017 0  -6.998101602884984 16.00036782948552 0  -5.997107839654135 16.00056830292799 0  -4.996056223575473 16.00078882450919 0  -3.996020362619873 16.00023252195604 0  -2.996053876694459 15.99967900968567 0  -1.997373799620162 15.99975547744904 0  -0.99864271034816 15.99980525832804 0  0.0001117992354686771 15.99982946553319 0  0.9988635349884399 15.99982892385235 0  1.997586193999087 15.99980387713119 0  2.996251735623713 15.99975411795885 0  3.996211919957005 16.00024726210238 0  4.996246155181424 16.00074068645034 0  5.997255026132411 16.00053210882007 0  6.998202095381409 16.00034380158547 0  7.99911039167755 16.00016866282185 0  9 16 0  -9 18 0  -7.998841034389454 18.0001365762096 0  -6.997654354080864 18.00027680096474 0  -5.996410804663868 18.00042425495122 0  -4.995078278394597 18.00058233674152 0  -3.995023364101474 18.00022799078987 0  -2.995075305726164 17.99987397096091 0  -1.99672545815495 17.99992720550565 0  -0.9982960457045523 17.99996498382302 0  0.0001716606617998211 17.99998776185213 0  0.9986383532849087 17.99999609147001 0  1.997064769875042 17.99999060205485 0  2.995409813250034 17.99997207815012 0  3.995354085208831 18.00025793867667 0  4.995407051570477 18.00054272273573 0  5.996658842286781 18.00039432911251 0  6.997820447621715 18.00025677744768 0  7.998924310535031 18.00012654925833 0  9 18 0  -9 20 0  -7.99873312256432 20.00007792570398 0  -6.997433825863231 20.00015686340902 0  -5.996068440458666 20.0002377161714 0  -4.994600778334497 20.00032115503217 0  -3.994537829766625 20.00022654561307 0  -2.994598737803527 20.00013216363186 0  -1.996396762216962 20.00016093584028 0  -0.9981032329910056 20.00018489279473 0  0.0002355163049899693 20.0002040317261 0  0.9985748192854645 20.00021870759939 0  1.99687006212023 20.00022962246625 0  2.995075067069871 20.00023785566897 0  3.995013517886535 20.00026368726226 0  4.995074353028822 20.00028861260451 0  5.996422236133899 20.00021320158783 0  6.997669060881237 20.00014046839783 0  7.998850557702148 20.00006971315771 0  8.999999999973028 20.00000000000515 0  -9 22 0  -7.998754535405316 22.00001521845759 0  -6.997476906736125 22.00002926088009 0  -5.996133940479073 22.00004082918236 0  -4.994690436232287 22.00004837823444 0  -3.994628814740893 22.00022814589365 0  -2.994689119949387 22.00040802001865 0  -1.996435664318372 22.00041398458128 0  -0.9980919627482865 22.00042413559033 0  0.0002971342650333704 22.00043821431331 0  0.9986881389133251 22.00045642181708 0  1.997037629184012 22.00047941087312 0  2.995300953398771 22.00050829499671 0  3.995242447090004 22.00026580945326 0  4.99530195335038 22.00002253887843 0  5.996588744745956 22.00002136109118 0  6.997778319742962 22.00001624220332 0  7.99890471131365 22.00000869768927 0  9 22 0  -9 24 0  -7.99890425017468 23.99995721340303 0  -6.997780587163591 23.99991155048986 0  -5.996600346300588 23.99986001016035 0  -4.995333337697783 23.99979934565842 0  -3.995280396517598 24.00023175089571 0  -2.99533272655168 24.0006640910226 0  -1.99683687379858 24.00065023293034 0  -0.9982628887414939 24.00064761473041 0  0.0003511451248718972 24.00065582709 0  0.9989681786384748 24.00067494966574 0  1.997551236143066 24.00070554893845 0  2.996062455431271 24.00074868220583 0  3.996013880118351 24.00026458172363 0  4.996064612816754 23.99977975188157 0  5.997143034335439 23.99984528418135 0  6.998139668936546 23.99990171771085 0  7.999082984517546 23.99995229231777 0  9 24 0  -9 26 0  -7.999165229998764 25.99991071848601 0  -6.998309797157431 25.99981734933814 0  -5.997412553774812 25.9997156804714 0  -4.996451324319732 25.99960125652941 0  -3.996412518168384 26.00023644697652 0  -2.996451263729742 26.00087145408785 0  -1.99755187344219 26.00084140086011 0  -0.9985945800569663 26.00082765074148 0  0.0003932128614210636 26.00082967495829 0  0.9993848072197654 26.0008474414482 0  1.998353582889019 26.00088141367901 0  2.997272371650166 26.00093255232913 0  3.99723880548528 26.00026049470702 0  4.997275331533833 25.99958782578349 0  5.998023373028326 25.99970561293066 0  6.998713625988979 25.99981063909665 0  7.999366135672832 25.99990736352729 0  9 26 0  -9 28 0  -7.99950841058449 27.99988058029701 0  -6.999005422935356 27.9997563474201 0  -5.998479413360124 27.99962236518746 0  -4.997918223746754 27.99947345431498 0  -3.997897079972565 28.00024154227615 0  -2.997918385216515 28.00100936907032 0  -1.998499712950987 28.00096723356416 0  -0.999048822442572 28.00094446314166 0  0.0004201361626805799 28.00094042345703 0  0.9998933886142355 28.00095497445045 0  1.999357241139557 28.00098846960083 0  2.99879778462938 28.0010417563177 0  3.998782541231778 28.00025424597531 0  4.998801357467752 27.99946627559088 0  5.999133709781045 27.99961700622975 0  6.999437824938278 27.9997527857033 0 
[...]
<PointData  Vectors="f_44-2"> 
<DataArray  type="Float64"  Name="f_44-2"  NumberOfComponents="3" format="ascii">0.0000000000000000e+00 0.0000000000000000e+00 0.0000000000000000e+00  0.0000000000000000e+00 0.0000000000000000e+00 0.0000000000000000e+00  0.0000000000000000e+00 0.0000000000000000e+00 0.0000000000000000e+00  0.0000000000000000e+00 0.0000000000000000e+00 0.0000000000000000e+00  0.0000000000000000e+00 0.0000000000000000e+00 0.0000000000000000e+00  0.0000000000000000e+00 0.0000000000000000e+00 0.0000000000000000e+00  0.0000000000000000e+00 0.0000000000000000e+00 0.0000000000000000e+00  0.0000000000000000e+00 0.0000000000000000e+00 0.0000000000000000e+00  0.0000000000000000e+00 0.0000000000000000e+00 0.0000000000000000e+00  0.0000000000000000e+00 0.0000000000000000e+00 0.0000000000000000e+00  0.0000000000000000e+00 0.0000000000000000e+00 0.0000000000000000e+00  0.0000000000000000e+00 0.0000000000000000e+00 0.0000000000000000e+00  0.0000000000000000e+00 0.0000000000000000e+00 0.0000000000000000e+00  0.0000000000000000e+00 0.0000000000000000e+00 0.0000000000000000e+00  0.0000000000000000e+00 0.0000000000000000e+00 0.0000000000000000e+00  0.0000000000000000e+00 0.0000000000000000e+00 0.0000000000000000e+00  0.0000000000000000e+00 0.0000000000000000e+00 0.0000000000000000e+00  0.0000000000000000e+00 0.0000000000000000e+00 0.0000000000000000e+00  0.0000000000000000e+00 0.0000000000000000e+00 0.0000000000000000e+00  0.0000000000000000e+00 0.0000000000000000e+00 0.0000000000000000e+00  1.0506872220489881e-04 1.5254068054991265e-04 0.0000000000000000e+00  2.2098519458706766e-04 2.8692393837675268e-04 0.0000000000000000e+00  3.7206872399819991e-04 3.8844178643727940e-04 0.0000000000000000e+00  6.1293613445997323e-04 4.5080558023723221e-04 0.0000000000000000e+00  3.7194067717358437e-04 3.3608173067572550e-04 0.0000000000000000e+00  1.2164962959121930e-04 2.3027578768854194e-04 0.0000000000000000e+00  -3.7638902386947627e-06 1.3231812883363053e-04 0.0000000000000000e+00  -3.1199762597580730e-05 5.5018665260516252e-05 0.0000000000000000e+00  2.4436501714433114e-06 2.1337955564626916e-05 0.0000000000000000e+00  4.0265256267405654e-05 4.5142576370733200e-05 0.0000000000000000e+00  2.6972560918142519e-05 1.2090110803318568e-04 0.0000000000000000e+00  -7.4890864639908970e-05 2.1434035505516822e-04 0.0000000000000000e+00  -2.7750560054271511e-04 3.1557155518457003e-04 0.0000000000000000e+00  -5.6907356303709104e-04 3.6018656423173368e-04 0.0000000000000000e+00  -3.4513213602254257e-04 3.4155995330549548e-04 0.0000000000000000e+00  -2.0540499677101261e-04 2.6198765247423218e-04 0.0000000000000000e+00  -9.7955036358208538e-05 1.4141030076030329e-04 0.0000000000000000e+00  0.0000000000000000e+00 0.0000000000000000e+00 0.0000000000000000e+00  0.0000000000000000e+00 0.0000000000000000e+00 0.0000000000000000e+00  1.6674981650456066e-04 3.7772320147140645e-04 0.0000000000000000e+00  3.0130221050695262e-04 7.0531870087223170e-04 0.0000000000000000e+00  3.8500378028133073e-04 9.3350473339272560e-04 0.0000000000000000e+00  4.2217642382319580e-04 1.0149665317463054e-03 0.0000000000000000e+00  7.4089798214606014e-05 9.6511647469631288e-04 0.0000000000000000e+00  -1.6310824237447536e-04 6.7249207813720397e-04 0.0000000000000000e+00  -2.3269190860779752e-04 2.9065889690082928e-04 0.0000000000000000e+00  -1.5675879598128238e-04 -1.6102754532610030e-05 0.0000000000000000e+00  -1.2739621707751675e-06 -1.3941832808568274e-04 0.0000000000000000e+00  1.5761929328712306e-04 -4.1906854298631343e-05 0.0000000000000000e+00  2.4485856556875061e-04 2.2104659712496208e-04 0.0000000000000000e+00  1.8545431206013898e-04 5.7742928961682875e-04 0.0000000000000000e+00  -4.3002207741266470e-05 9.3635169827321061e-04 0.0000000000000000e+00  -3.8429622213012870e-04 1.0598702019997918e-03 0.0000000000000000e+00  -3.5340943905674176e-04 9.2690927511324638e-04 0.0000000000000000e+00  -2.8170376196520644e-04 6.8800685654694775e-04 0.0000000000000000e+00  -1.5793459175606804e-04 3.6616431879218209e-04 0.0000000000000000e+00  0.0000000000000000e+00 0.0000000000000000e+00 0.0000000000000000e+00  0.0000000000000000e+00 0.0000000000000000e+00 0.0000000000000000e+00  3.5723608557284393e-04 8.0347419919414261e-04 0.0000000000000000e+00  5.8502372898392439e-04 1.5214043296554996e-03 0.0000000000000000e+00  5.8405304872932782e-04 2.0655148297155463e-03 0.0000000000000000e+00  3.2545329926480913e-04 2.3505883725343612e-03 0.0000000000000000e+00  -3.4660982098634868e-04 1.9204790009935042e-03 0.0000000000000000e+00  -6.5803101578949276e-04 1.0171512440084441e-03 0.0000000000000000e+00  -5.5069946050464026e-04 6.8851118206117605e-05 0.0000000000000000e+00  -2.6484652053752471e-04 -4.6001156764576462e-04 0.0000000000000000e+00  2.5920784826762711e-05 -5.6699764734068840e-04 0.0000000000000000e+00  2.8672059352083943e-04 -3.9404098078491993e-04 0.0000000000000000e+00  4.8231664083023170e-04 8.3135925395818889e-05 0.0000000000000000e+00  5.4823070065498187e-04 8.8735525996000691e-04 0.0000000000000000e+00  3.7958891081651031e-04 1.7212588989120221e-03 0.0000000000000000e+00  -1.9832805555085605e-04 2.1349840533878154e-03 0.0000000000000000e+00  -5.2496310861799159e-04 1.9360709638768937e-03 0.0000000000000000e+00  -5.6627045099615319e-04 1.4458393517248309e-03 0.0000000000000000e+00  -3.5459642578652940e-04 7.6825550610452105e-04 0.0000000000000000e+00  0.0000000000000000e+00 0.0000000000000000e+00 0.0000000000000000e+00  0.0000000000000000e+00 0.0000000000000000e+00 0.0000000000000000e+00  1.0661361457833015e-03 1.5715950479290490e-03 0.0000000000000000e+00  1.7838768217706984e-03 3.0330497587001304e-03 0.0000000000000000e+00  1.8136705260704239e-03 4.2339479876552059e-03 0.0000000000000000e+00  8.6336636824053633e-04 4.9252988441600377e-03 0.0000000000000000e+00  -4.2449978032705205e-04 2.9363989165904431e-03 0.0000000000000000e+00  -2.0707337647824536e-04 5.9278263870785042e-04 0.0000000000000000e+00  2.5870377454455501e-04 -5.5681141797156973e-04 0.0000000000000000e+00  2.9079650283437555e-04 -6.9705138849455604e-04 0.0000000000000000e+00  -3.5848349298820944e-07 -7.3854222128938733e-04 0.0000000000000000e+00  -2.1949596098112857e-04 -8.5004492226964194e-04 0.0000000000000000e+00  -1.3735783184599221e-04 -3.6515816647154822e-04 0.0000000000000000e+00  4.0952292425682347e-04 4.6268945061093980e-04 0.0000000000000000e+00  5.8106731817803904e-04 2.4900992481253570e-03 0.0000000000000000e+00  -6.9420673273497572e-04 4.7705316291507295e-03 0.0000000000000000e+00  -1.8380223718196657e-03 4.1108797690331171e-03 0.0000000000000000e+00  -1.8629820049530300e-03 2.9533638513276014e-03 0.0000000000000000e+00  -1.1231342672826531e-03 1.5332462154633852e-03 0.0000000000000000e+00  0.0000000000000000e+00 0.0000000000000000e+00 0.0000000000000000e+00  0.0000000000000000e+00 0.0000000000000000e+00 0.0000000000000000e+00  3.1699400360275525e-03 2.7813418169784091e-03 0.0000000000000000e+00  5.7335224879448178e-03 5.5887760867169020e-03 0.0000000000000000e+00  6.9650102968958827e-03 8.4432896934758996e-03 0.0000000000000000e+00  5.8539050927350128e-03 1.1354990543827388e-02 0.0000000000000000e+00  3.8171423881365710e-03 4.9556629626367841e-03 0.0000000000000000e+00  4.1094193759794997e-03 -5.6446545727864171e-04 0.0000000000000000e+00  3.2693450148334651e-03 3.5004225007461082e-04 0.0000000000000000e+00  1.4834584619328407e-03 6.4375619716382562e-04 0.0000000000000000e+00  1.6040940114665726e-04 7.1493558526325223e-04 0.0000000000000000e+00  -1.1536985601452233e-03 7.1256478801223213e-04 0.0000000000000000e+00  -2.8985579499538937e-03 7.5729694438198762e-04 0.0000000000000000e+00  -4.4399201630163825e-03 -1.2011208185290472e-03 0.0000000000000000e+00  -4.2755327269196272e-03 4.0771942722170997e-03 0.0000000000000000e+00  -6.6015910954620024e-03 1.1014305799906756e-02 0.0000000000000000e+00  -7.6292194397074272e-03 8.2792253598521267e-03 0.0000000000000000e+00  -6.2206219637538805e-03 5.5124539014720780e-03 0.0000000000000000e+00  -3.4259241465623598e-03 2.7514838324183060e-03 0.0000000000000000e+00  0.0000000000000000e+00 0.0000000000000000e+00 0.0000000000000000e+00  0.0000000000000000e+00 0.0000000000000000e+00 0.0000000000000000e+00  7.7052991697311455e-03 3.8889881617715405e-03 0.0000000000000000e+00  1.5021541049777206e-02 7.9600147427720293e-03 0.0000000000000000e+00  2.1506161453342172e-02 1.2430483300146950e-02 0.0000000000000000e+00  2.6612720470492249e-02 1.7603567722183629e-02 0.0000000000000000e+00  2.5553312956508912e-02 5.9736612936431037e-03 0.0000000000000000e+00  2.6434834645204963e-02 -5.5471793559878167e-03 0.0000000000000000e+00  1.8077738216167434e-02 -4.1828474911936942e-03 0.0000000000000000e+00  8.8015898415460120e-03 -3.4497258803203776e-03 0.0000000000000000e+00  -8.1976437790578680e-04 -3.3180087632847014e-03 0.0000000000000000e+00  -1.0529703792476008e-02 -3.8133245630622395e-03 0.0000000000000000e+00  -2.0108878514249261e-02 -5.0774164275241233e-03 0.0000000000000000e+00  -2.9122160479405981e-02 -7.4628873684015086e-03 0.0000000000000000e+00  -2.8170437955072822e-02 5.1454859652523225e-03 0.0000000000000000e+00  -2.8872042257007503e-02 1.7848854547289274e-02 0.0000000000000000e+00  -2.3178516784091000e-02 1.2579065741726441e-02 0.0000000000000000e+00  -1.6129249583164400e-02 8.0512471105260129e-03 0.0000000000000000e+00  -8.2576383577061766e-03 3.9335768113812385e-03 0.0000000000000000e+00  0.0000000000000000e+00 0.0000000000000000e+00 0.0000000000000000e+00  0.0000000000000000e+00 0.0000000000000000e+00 0.0000000000000000e+00  1.3809537208757161e-02 4.2710414829700135e-03 0.0000000000000000e+00  2.7656293621579654e-02 8.7379178662693579e-03 0.0000000000000000e+00  4.1594187759688317e-02 1.3613674385461721e-02 0.0000000000000000e+00  5.5728847021246079e-02 1.9144767220391962e-02 0.0000000000000000e+00  5.5836561091073704e-02 5.5949317462085160e-03 0.0000000000000000e+00  5.5858171803199054e-02 -8.1276995157329220e-03 0.0000000000000000e+00  3.6538546366231710e-02 -6.1861883566366798e-03 0.0000000000000000e+00  1.7489789493140350e-02 -5.1335489741429468e-03 0.0000000000000000e+00  -1.4437001162873326e-03 -4.8388244446706417e-03 0.0000000000000000e+00  -2.0410981544815486e-02 -5.2600977108551196e-03 0.0000000000000000e+00  -3.9549258172563044e-02 -6.4201144563129633e-03 0.0000000000000000e+00  -5.8963476072597304e-02 -8.3819809438739085e-03 0.0000000000000000e+00  -5.9165026265073833e-02 5.6020774151813967e-03 0.0000000000000000e+00  -5.9296760584217047e-02 1.9499125291828692e-02 0.0000000000000000e+00  -4.4179726629078687e-02 1.3920456990205615e-02 0.0000000000000000e+00  -2.9344150735799452e-02 8.9550617850346903e-03 0.0000000000000000e+00  -1.4643955224108985e-02 4.3823549456899671e-03 0.0000000000000000e+00  0.0000000000000000e+00 0.0000000000000000e+00 0.0000000000000000e+00  0.0000000000000000e+00 0.0000000000000000e+00 0.0000000000000000e+00  1.9782173919893307e-02 3.8714500612436554e-03 0.0000000000000000e+00  3.9954942705191579e-02 7.8838842704071783e-03 0.0000000000000000e+00  6.0940930168581667e-02 1.2180887141630202e-02 0.0000000000000000e+00  8.3232495421969005e-02 1.6907420247374821e-02 0.0000000000000000e+00  8.3992771410135433e-02 5.3994896363094725e-03 0.0000000000000000e+00  8.3194720029219876e-02 -6.0410381937446092e-03 0.0000000000000000e+00  5.3871694738638509e-02 -4.6203770454593422e-03 0.0000000000000000e+00  2.5697119835599042e-02 -3.7747481317571773e-03 0.0000000000000000e+00  -1.9325554776770824e-03 -3.4858055182271246e-03 0.0000000000000000e+00  -2.9589053264216608e-02 -3.7421506292036250e-03 0.0000000000000000e+00  -5.7844260641361459e-02 -4.5458482688801446e-03 0.0000000000000000e+00  -8.7305460804716961e-02 -5.9096070646640656e-03 0.0000000000000000e+00  -8.8189271648342449e-02 5.9389630985335808e-03 0.0000000000000000e+00  -8.7489954262309419e-02 1.7802445167993525e-02 0.0000000000000000e+00  -6.4103824349691488e-02 1.2814973941716759e-02 0.0000000000000000e+00  -4.2046929357262931e-02 8.2924910054586742e-03 0.0000000000000000e+00  -2.0822765859468819e-02 4.0720111784229877e-03 0.0000000000000000e+00  0.0000000000000000e+00 0.0000000000000000e+00 0.0000000000000000e+00  0.0000000000000000e+00 0.0000000000000000e+00 0.0000000000000000e+00  2.4210062707203696e-02 2.9083469366614060e-03 0.0000000000000000e+00  4.9034198069430476e-02 5.8939676952097873e-03 0.0000000000000000e+00  7.5117771029452121e-02 9.0327490966969695e-03 0.0000000000000000e+00  1.0317102175770515e-01 1.2396349093930246e-02 0.0000000000000000e+00  1.0434490009366344e-01 5.3716768737912517e-03 0.0000000000000000e+00  1.0316041417523682e-01 -1.6382947929942612e-03 0.0000000000000000e+00  6.6555274961337618e-02 -7.4217191240298901e-04 0.0000000000000000e+00  3.1698161243685886e-02 -1.7767701461503328e-04 0.0000000000000000e+00  -2.3158988735152088e-03 5.9722269128715626e-05 0.0000000000000000e+00  -3.6349597947169479e-02 -2.3725063254251691e-05 0.0000000000000000e+00  -7.1264653986438942e-02 -4.2078138038119947e-04 0.0000000000000000e+00  -1.0796275961924998e-01 -1.1214350320811880e-03 0.0000000000000000e+00  -1.0921294473512187e-01 6.2172565562883947e-03 0.0000000000000000e+00  -1.0807136294491733e-01 1.3539771891276014e-02 0.0000000000000000e+00  -7.8766225721899577e-02 9.8533909650589339e-03 0.0000000000000000e+00  -5.1453344268547266e-02 6.4242803411914242e-03 0.0000000000000000e+00  -2.5415604547181499e-02 3.1686257947488019e-03 0.0000000000000000e+00  0.0000000000000000e+00 0.0000000000000000e+00 0.0000000000000000e+00  0.0000000000000000e+00 0.0000000000000000e+00 0.0000000000000000e+00  2.6198544791413970e-02 1.6358359929813419e-03 0.0000000000000000e+00  5.3109025743887255e-02 3.2917682760976712e-03 0.0000000000000000e+00  8.1470835873756253e-02 4.9855968966577187e-03 0.0000000000000000e+00  1.1207883976153502e-01 6.7300669779972273e-03 0.0000000000000000e+00  1.1342498827869950e-01 5.4126673724423490e-03 0.0000000000000000e+00  1.1205885390198943e-01 4.1066281917069526e-03 0.0000000000000000e+00  7.2183870275950315e-02 4.4706039596098882e-03 0.0000000000000000e+00  3.4296687985451504e-02 4.7356591924580917e-03 0.0000000000000000e+00  -2.6225372168712283e-03 4.8969693232429803e-03 0.0000000000000000e+00  -3.9558541075186589e-02 4.9571632320894940e-03 0.0000000000000000e+00  -7.7495641094258091e-02 4.9260670690284714e-03 0.0000000000000000e+00  -1.1745318761990016e-01 4.8213328185952248e-03 0.0000000000000000e+00  -1.1884832708779915e-01 6.3882513613574060e-03 0.0000000000000000e+00  -1.1750582855988205e-01 7.9414585246142862e-03 0.0000000000000000e+00  -8.5516147844951124e-02 5.8637062839435950e-03 0.0000000000000000e+00  -5.5794022219117327e-02 3.8627853236280723e-03 0.0000000000000000e+00  -2.7537476499964610e-02 1.9170309524368723e-03 0.0000000000000000e+00  1.6560114682146869e-09 -9.7356509489217364e-10 0.0000000000000000e+00  0.0000000000000000e+00 0.0000000000000000e+00 0.0000000000000000e+00  2.5354810006956909e-02 2.8258019825877224e-04 0.0000000000000000e+00  5.1411515181644253e-02 5.3783046845687951e-04 0.0000000000000000e+00  7.8894238353252294e-02 7.3580671416658696e-04 0.0000000000000000e+00  1.0857189859745296e-01 8.4125074477809053e-04 0.0000000000000000e+00  1.0988292209522786e-01 5.5149506539817882e-03 0.0000000000000000e+00  1.0854037740790554e-01 1.0195806759973147e-02 0.0000000000000000e+00  6.9797982816080836e-02 1.0081701109001254e-02 0.0000000000000000e+00  3.2994016725036060e-02 1.0066867287812375e-02 0.0000000000000000e+00  -2.8625382172510435e-03 1.0141524581124522e-02 0.0000000000000000e+00  -3.8734113189572823e-02 1.0305796196874608e-02 0.0000000000000000e+00  -7.5582949888434253e-02 1.0569511216953273e-02 0.0000000000000000e+00  -1.1439954613121238e-01 1.0952379250107700e-02 0.0000000000000000e+00  -1.1574454390010637e-01 6.4738882865194572e-03 0.0000000000000000e+00  -1.1440984008931669e-01 1.9827112743753968e-03 0.0000000000000000e+00  -8.3250359424965933e-02 1.5665523050033641e-03 0.0000000000000000e+00  -5.4304985727128122e-02 1.0796981845037439e-03 0.0000000000000000e+00  -2.6798406483763811e-02 5.4995293417676528e-04 0.0000000000000000e+00  0.0000000000000000e+00 0.0000000000000000e+00 0.0000000000000000e+00  0.0000000000000000e+00 0.0000000000000000e+00 0.0000000000000000e+00  2.1719282967610828e-02 -9.6138612771867152e-04 0.0000000000000000e+00  4.4043380667122212e-02 -1.9870962199538687e-03 0.0000000000000000e+00  6.7593497616797685e-02 -3.1440861357850658e-03 0.0000000000000000e+00  9.3023652257636383e-02 -4.5047424913097151e-03 0.0000000000000000e+00  9.4135604314600413e-02 5.6484725323444687e-03 0.0000000000000000e+00  9.2975119153321670e-02 1.5804064111687419e-02 0.0000000000000000e+00  5.9597367052436734e-02 1.5293145799012260e-02 0.0000000000000000e+00  2.7873463195510526e-02 1.5037666703929697e-02 0.0000000000000000e+00  -3.0411671512200330e-03 1.5025127933646965e-02 0.0000000000000000e+00  -3.3969700804858331e-02 1.5253947900605058e-02 0.0000000000000000e+00  -6.5735163967107962e-02 1.5733224778466684e-02 0.0000000000000000e+00  -9.9181597390363155e-02 1.6482789844822845e-02 0.0000000000000000e+00  -1.0032309840337761e-01 6.4719315967368919e-03 0.0000000000000000e+00  -9.9167492300862067e-02 -3.5515307840429410e-03 0.0000000000000000e+00  -7.2180367017036007e-02 -2.4480620653782891e-03 0.0000000000000000e+00  -4.7091766847321227e-02 -1.5320189978843515e-03 0.0000000000000000e+00  -2.3240689693423341e-02 -7.3653768736736919e-04 0.0000000000000000e+00  0.0000000000000000e+00 0.0000000000000000e+00 0.0000000000000000e+00  0.0000000000000000e+00 0.0000000000000000e+00 0.0000000000000000e+00  1.5683469798416047e-02 -1.9477662228568880e-03 0.0000000000000000e+00  3.1808579123267018e-02 -3.9863749012699085e-03 0.0000000000000000e+00  4.8827137952070228e-02 -6.2094130327451039e-03 0.0000000000000000e+00  6.7213980339613177e-02 -8.7158447577011626e-03 0.0000000000000000e+00  6.8005829468600218e-02 5.7884343891292612e-03 0.0000000000000000e+00  6.7149363594978778e-02 2.0292390792171263e-02 0.0000000000000000e+00  4.2722994475987340e-02 1.9477993127288411e-02 0.0000000000000000e+00  1.9489316107039547e-02 1.9031068651333707e-02 0.0000000000000000e+00  -3.1616782092991663e-03 1.8937557889094760e-02 0.0000000000000000e+00  -2.5825844466920378e-02 1.9194336321726048e-02 0.0000000000000000e+00  -4.9099139579755528e-02 1.9809527565526477e-02 0.0000000000000000e+00  -7.3590626389879413e-02 2.0802147390222018e-02 0.0000000000000000e+00  -7.4412416953387045e-02 6.3877078089503219e-03 0.0000000000000000e+00  -7.3562278438439793e-02 -8.0368771520699187e-03 0.0000000000000000e+00  -5.3568488131844852e-02 -5.7127473140818853e-03 0.0000000000000000e+00  -3.4960126888851695e-02 -3.6612079275322143e-03 0.0000000000000000e+00  -1.7256525579563347e-02 -1.7869699995844853e-03 0.0000000000000000e+00  0.0000000000000000e+00 0.0000000000000000e+00 0.0000000000000000e+00  0.0000000000000000e+00 0.0000000000000000e+00 0.0000000000000000e+00  7.9016024766079117e-03 -2.5704255669779540e-03 0.0000000000000000e+00  1.6037486063421043e-02 -5.2477586932256452e-03 0.0000000000000000e+00  2.4646112510016742e-02 -8.1416448010965311e-03 0.0000000000000000e+00  3.3978329684091889e-02 -1.1367088307198330e-02 0.0000000000000000e+00  3.4373486432101558e-02 5.9192596244545667e-03 0.0000000000000000e+00  3.3906732078962859e-02 2.3204392364359516e-02 0.0000000000000000e+00  2.1020578063320229e-02 2.2187253204682962e-02 0.0000000000000000e+00  8.7485031517663576e-03 2.1604895151637750e-02 0.0000000000000000e+00  -3.2267541988882723e-03 2.1442219127669044e-02 0.0000000000000000e+00  -1.5214905853714591e-02 2.1694890757522185e-02 0.0000000000000000e+00  -2.7525643850427359e-02 2.2369657505925501e-02 0.0000000000000000e+00  -4.0475154683045231e-02 2.3484313941858296e-02 0.0000000000000000e+00  -4.0897256955662327e-02 6.2358599331636009e-03 0.0000000000000000e+00  -4.0434826390913926e-02 -1.1018559521184039e-02 0.0000000000000000e+00  -2.9469135865956380e-02 -7.886398303