<?xml version="1.0"?>
<VTKFile type="UnstructuredGrid"  version="0.1"  >
<UnstructuredGrid>
<Piece  NumberOfPoints="589" NumberOfCells="1080">
<Points>
<DataArray  type="Float64"  NumberOfComponents="3"  format="ascii">-9 0 0  -8 0 0  -7 0 0  -6 0 0  -5 0 0  -4 0 0  -3 0 0  -2 0 0  -1 0 0  0 0 0  1 0 0  2 0 0  3 0 0  4 0 0  5 0 0  6 0 0  7 0 0  8 0 0  9 0 0  -9 2 0  -8.000004399477607 1.9999929079028 0  -7.000009276787496 1.999986714841018 0  -6.000015745102637 1.999982154250501 0  -5.000026339028582 1.999979556768008 0  -4.000015238451937 1.999984599664943 0  -3.00000378865593 1.999989530834153 0  -1.999998242428667 1.999994217667381 0  -0.9999974096911252 1.999997908748189 0  5.031392940186029e-07 1.999999469862099 0  0.9999982888887147 1.9999981881785 0  1.999998691158128 1.999994308993386 0  3.000003590438668 1.999989505858467 0  4.000013662545097 1.999984186331404 0  5.000028407912142 1.999981430087317 0  6.000017441850519 1.999982526721121 0  7.000010481375023 1.999986649308827 0  8.00000502686312 1.999992807297598 0  9 2 0  -9.000000000004983 4 0  -8.000006887572836 3.999982219957596 0  -7.000012189583381 3.99996690001234 0  -6.000014987729562 3.999956456187151 0  -5.000015501621726 3.999953203768391 0  -3.999999048209002 3.999955365692414 0  -2.999987997448621 3.999969424881334 0  -1.999985153563666 3.999987838030029 0  -0.9999894367864175 4.000002632179421 0  2.41074040465324e-06 4.000008440823209 0  0.9999941439351301 4.000003314207973 0  1.999989502808389 3.999989929185786 0  2.999992254040374 3.999971767905053 0  4.000003566617698 3.999953200634442 0  5.000020653310579 3.999945951331975 0  6.00001886124012 3.999952949882317 0  7.000014938767653 3.99996515740561 0  8.00000834295853 3.999981476140842 0  9 4 0  -9 6 0  -8.000015717554087 5.99996169311082 0  -7.000025117823921 5.999927582088334 0  -6.000023367349643 5.999901993852318 0  -5.000009050990299 5.999889110420582 0  -3.999976612795896 5.999909811322323 0  -2.99996176967223 5.9999536617646 0  -1.99996736070078 5.999999774128528 0  -0.9999817435561816 6.000025536498256 0  3.518912289351554e-06 6.00003057495034 0  0.9999901332466735 6.000021744793258 0  1.999979922849857 5.999997588013832 0  2.999976275154453 5.999956817725947 0  3.999984486885439 5.99991427331668 0  5.000013213997551 5.999892448565318 0  6.000028802245616 5.999902538547172 0  7.000030089041166 5.99992722229025 0  8.000018646955755 5.999961326058583 0  9 6 0  -9 8 0  -8.000049812494833 7.999924389341031 0  -7.000082646393794 7.999854180516695 0  -6.000082008821502 7.99979671980396 0  -5.000033672306635 7.999764127793517 0  -3.999971061588433 7.999860780640297 0  -2.999981568682808 7.999974717025442 0  -2.000004228756466 8.000030839540939 0  -1.00000591169399 8.000037985324841 0  8.049959377682462e-06 8.000040180680742 0  1.000018245079241 8.000045823761525 0  2.000013471037767 8.000021156197876 0  2.999985440319361 7.999979242211445 0  3.999976026141745 7.999876734532711 0  5.000039479794334 7.999761254758882 0  6.00009594354342 7.999793763091421 0  7.000096148289604 7.999851615542183 0  8.000057764708073 7.999922901758428 0  9 8 0  -9 10 0  -8.000151787220823 9.999865506232995 0  -7.000274023445972 9.999729829980227 0  -6.000331409483823 9.999592042711651 0  -5.000274725128719 9.999451810304498 0  -4.00017590960567 9.999762746634918 0  -3.000190177370215 10.00003072163305 0  -2.000149274709128 9.999986988087295 0  -1.000062449666714 9.999972972007688 0  2.2100211250011e-06 9.999969540853174 0  1.0000667932923 9.999969557652324 0  2.000153331287327 9.99996691967624 0  3.000228737434193 10.00006554803406 0  4.000218742764386 9.999798900123904 0  5.000335806168879 9.999447671935807 0  6.000388041259192 9.999583673283313 0  7.000316510121865 9.999722308672196 0  8.000174373435435 9.999861251639887 0  9 10 0  -9 12 0  -8.000371806461818 11.99981141239505 0  -7.00072454038357 11.99961402349465 0  -6.001036587160717 11.99939732047698 0  -5.001281084145625 11.99914666888025 0  -4.001230407444827 11.99971152941245 0  -3.001273721233168 12.00027058884197 0  -2.000856397045203 12.00020622683021 0  -1.000395233913325 12.00017298500427 0  8.172552754499016e-05 12.00016946647991 0  1.000561669688175 12.00019711031129 0  2.001033280954572 12.00026316400205 0  3.001473936222405 12.00038549148266 0  4.001422972056348 11.99974453346992 0  5.00145867066624 11.99909816015029 0  6.001174806802279 11.9993631921733 0  7.000819094499684 11.99959186053659 0  8.000419806374655 11.99980043526389 0  9 12 0  -9 14 0  -8.00066778844359 13.99979259035026 0  -7.001337281164287 13.99957558879908 0  -6.002011065534985 13.99933856101587 0  -5.002694054984938 13.99906942247359 0  -4.002700730874069 13.99972652628749 0  -3.002702511018034 14.00039178881369 0  -2.001739495367735 14.00030110841347 0  -1.000791455954508 14.00025421446392 0  0.000149420758189955 14.00024484714984 0  1.001090421295301 14.00027115625475 0  2.002038051007429 14.00033450617695 0  3.002997025351863 14.00043826500899 0  4.003003570119396 13.99971913809458 0  5.003010546359566 13.999004120857 0  6.002248089909468 13.99928845364385 0  7.001495467054885 13.99954195993165 0  8.000746989695363 13.99977575411538 0  9 14 0  -9 16 0  -8.000956508762329 15.99981217983756 0  -7.001932121463605 15.99961735255914 0  -6.002947539799311 15.99940838571998 0  -5.004026761081161 15.99917801394909 0  -4.004065348015224 15.99973326091251 0  -3.004026556399101 16.00028527406366 0  -2.002563861170431 16.00022121390976 0  -1.001159519740917 16.00018563729587 0  0.0002166830547044802 16.00017779601334 0  1.001593268272475 16.0001973118248 0  2.002998690580234 16.00024448809774 0  3.00446314387381 16.00032016569866 0  4.004504727921459 15.9997001548103 0  5.004469840374368 15.99907943075507 0  6.003280550177934 15.99933722159289 0  7.002154351288361 15.99957104824164 0  8.001067678273294 15.99978934082645 0  9 16 0  -9 18 0  -8.001168341983439 17.99985980904552 0  -7.002366901888299 17.99971572122039 0  -6.003627446611441 17.99956390595119 0  -5.004984844629575 17.99940068737925 0  -4.005043469475948 17.99973343314674 0  -3.004984926654412 18.00006547818982 0  -2.003156326005356 18.00002769617591 0  -1.001415720152286 18.00000644108441 0  0.0002824285269913066 18.00000163682474 0  1.001981476279604 18.00001314106826 0  2.003724719773401 18.00004076963098 0  3.005557507794164 18.00008421174574 0  4.00561886519182 17.99968560238547 0  5.005561574503155 17.99928783027068 0  6.00405893255982 17.99948197758952 0  7.002654050467237 17.99966235424374 0  8.001311764614025 17.9998334920836 0  9 18 0  -9 20 0  -8.00125887108759 19.99992301876349 0  -7.00255288146009 19.999845012093 0  -6.003918512623175 19.99976506745976 0  -5.005394935961205 19.99968249775091 0  -4.005461932361452 19.99973160448759 0  -3.005393988388472 19.99977998168856 0  -2.003398542839527 19.99976830126381 0  -1.001502900421698 19.99976168269626 0  0.0003445774615894508 19.99976048334891 0  1.002193699425298 19.99976470678384 0  2.004094283117835 19.99977401596378 0  3.006098005509497 19.99978770165552 0  4.006167849872721 19.99967781864127 0  5.006099876856283 19.99956847106269 0  6.0044445039454 19.99968185558589 0  7.002902266604565 19.99979063332117 0  8.001433184718701 19.99989615732843 0  8.999999999985883 19.99999999999842 0  -9 22 0  -8.001208439285758 21.99999032335466 0  -7.002451514311474 21.99998205567544 0  -6.003764958950687 21.99997673543611 0  -5.005186699158894 21.99997616316086 0  -4.00525217352044 21.99972714348761 0  -3.005185544839584 21.99947736720037 0  -2.003243321013177 21.9994887368723 0  -1.001398247260723 21.99949533362235 0  0.0004001718652614277 21.9994977262745 0  1.002200945377179 21.99949601224795 0  2.004053114312194 21.99948982686728 0  3.006007273142555 21.99947833483835 0  4.00607521466431 21.99967477928808 0  5.006006639300987 21.99987147944676 0  6.004375828533926 21.99990015534195 0  7.002856830984019 21.99993191752572 0  8.001410520689388 21.99996552838839 0  9 22 0  -9 24 0  -8.00101904118335 24.00005199494715 0  -7.002067774094452 24.00010731356526 0  -6.003176732459592 24.0001694150293 0  -5.004378118214329 24.00024203633146 0  -4.004434204125757 23.99972037440885 0  -3.004377347517893 23.99919803515471 0  -2.002701238127127 23.99922819391172 0  -1.001107771976765 23.99924573597626 0  0.0004464034542637367 23.99925133170275 0  1.00200352224408 23.99924513556471 0  2.003605861281196 23.99922678860747 0  3.005296904854636 23.99919541502383 0  4.005354575375231 23.99967548912808 0  5.005293768103567 24.00015566037675 0  6.003858273679775 24.00010609469885 0  7.00251967584558 24.00006579476995 0  8.001244256312107 24.00003144396259 0  9 24 0  -9 26 0  -8.000710388171246 26.00010038350291 0  -7.001442151894469 26.00020545027311 0  -6.002217257461353 26.00032002302308 0  -5.003058773633165 26.00044920983155 0  -4.003099470335428 25.99971177398258 0  -3.003058811234431 25.99897378271978 0  -2.001830264489987 25.99901795745375 0  -1.000660897662292 25.99904376395902 0  0.0004809380185280397 25.99905194447997 0  1.001626143691273 25.9990426994615 0  2.002805667689126 25.99901568878505 0  3.004051300521465 25.99897003011558 0  4.004092394297038 25.99967895111258 0  5.004045784187471 26.00038783193403 0  6.002951534828709 26.00027496363001 0  7.001928840918334 26.00017587372854 0  8.000952884833575 26.00008573388957 0  9 26 0  -9 28 0  -8.000315655016312 28.00013005182164 0  -7.000642113713118 28.00026557480388 0  -6.000990502146022 28.00041218270512 0  -5.001372481646894 28.00057577734884 0  -4.001393715407419 27.99970206780006 0  -3.001373529308832 27.99882798067876 0  -2.000724233986648 27.99888102145051 0  -1.000104652457987 27.99891212298305 0  0.0005020656755198297 27.99892208493113 0  1.001112400789404 27.99891114928189 0  2.001742880623107 27.99887900019266 0  3.002410498407927 27.99882476304934 0  4.002430859793609 27.99968437355796 0  5.0024029814343 28.00054386139843 0  6.00175695009368 28.00038872201823 0  7.001150039202662 28.00025016052847 0  8.0005687081
[...]
<PointData  Vectors="f_44-2"> 
<DataArray  type="Float64"  Name="f_44-2"  NumberOfComponents="3" format="ascii">0.0000000000000000e+00 0.0000000000000000e+00 0.0000000000000000e+00  0.0000000000000000e+00 0.0000000000000000e+00 0.0000000000000000e+00  0.0000000000000000e+00 0.0000000000000000e+00 0.0000000000000000e+00  0.0000000000000000e+00 0.0000000000000000e+00 0.0000000000000000e+00  0.0000000000000000e+00 0.0000000000000000e+00 0.0000000000000000e+00  0.0000000000000000e+00 0.0000000000000000e+00 0.0000000000000000e+00  0.0000000000000000e+00 0.0000000000000000e+00 0.0000000000000000e+00  0.0000000000000000e+00 0.0000000000000000e+00 0.0000000000000000e+00  0.0000000000000000e+00 0.0000000000000000e+00 0.0000000000000000e+00  0.0000000000000000e+00 0.0000000000000000e+00 0.0000000000000000e+00  0.0000000000000000e+00 0.0000000000000000e+00 0.0000000000000000e+00  0.0000000000000000e+00 0.0000000000000000e+00 0.0000000000000000e+00  0.0000000000000000e+00 0.0000000000000000e+00 0.0000000000000000e+00  0.0000000000000000e+00 0.0000000000000000e+00 0.0000000000000000e+00  0.0000000000000000e+00 0.0000000000000000e+00 0.0000000000000000e+00  0.0000000000000000e+00 0.0000000000000000e+00 0.0000000000000000e+00  0.0000000000000000e+00 0.0000000000000000e+00 0.0000000000000000e+00  0.0000000000000000e+00 0.0000000000000000e+00 0.0000000000000000e+00  0.0000000000000000e+00 0.0000000000000000e+00 0.0000000000000000e+00  0.0000000000000000e+00 0.0000000000000000e+00 0.0000000000000000e+00  6.5150545605914708e-05 1.0036367073260112e-04 0.0000000000000000e+00  1.3589663695019188e-04 1.8772089345585715e-04 0.0000000000000000e+00  2.2665273073599465e-04 2.5143417735694888e-04 0.0000000000000000e+00  3.7142553865866969e-04 2.8657600033408804e-04 0.0000000000000000e+00  2.1427348028165918e-04 2.1572447809503379e-04 0.0000000000000000e+00  5.4520089074081586e-05 1.4515767154105828e-04 0.0000000000000000e+00  -2.1154837804104769e-05 7.7429230598516065e-05 0.0000000000000000e+00  -2.9140641809758702e-05 2.3635994627514631e-05 0.0000000000000000e+00  5.3849794486106202e-06 -4.4729730979904988e-07 0.0000000000000000e+00  4.3479249013392156e-05 1.4833766858924564e-05 0.0000000000000000e+00  4.7479230121438673e-05 6.5255230322752377e-05 0.0000000000000000e+00  -7.4378108950534473e-06 1.2621423528496665e-04 0.0000000000000000e+00  -1.2789287122809729e-04 1.8892292327477240e-04 0.0000000000000000e+00  -3.0271627453360415e-04 2.0705490462699167e-04 0.0000000000000000e+00  -1.8009227909457058e-04 2.0396477228723126e-04 0.0000000000000000e+00  -1.0670549177093131e-04 1.5953693404035602e-04 0.0000000000000000e+00  -5.1046823082527250e-05 8.6960380893865013e-05 0.0000000000000000e+00  0.0000000000000000e+00 0.0000000000000000e+00 0.0000000000000000e+00  0.0000000000000000e+00 0.0000000000000000e+00 0.0000000000000000e+00  1.0791723567662764e-04 2.5274500046103162e-04 0.0000000000000000e+00  1.9175392829944018e-04 4.7001153772215033e-04 0.0000000000000000e+00  2.3723793353237961e-04 6.1715089197375594e-04 0.0000000000000000e+00  2.4685200285111538e-04 6.6137384104323987e-04 0.0000000000000000e+00  1.5153324487946723e-05 6.2529891184085504e-04 0.0000000000000000e+00  -1.3756437425753760e-04 4.2112586918119615e-04 0.0000000000000000e+00  -1.7185714816444101e-04 1.5570171355108254e-04 0.0000000000000000e+00  -1.0344783796709133e-04 -5.8579961979733328e-05 0.0000000000000000e+00  2.0596941980662022e-05 -1.4606179741166283e-04 0.0000000000000000e+00  1.4742708529651540e-04 -8.1585168589451751e-05 0.0000000000000000e+00  2.2554109465236985e-04 9.5085295870633578e-05 0.0000000000000000e+00  2.0342787873905066e-04 3.3337549933531741e-04 0.0000000000000000e+00  6.5142114800713973e-05 5.7024024241411207e-04 0.0000000000000000e+00  -1.5322912320200229e-04 6.3940893651622639e-04 0.0000000000000000e+00  -1.6323426936317082e-04 5.7327460067684239e-04 0.0000000000000000e+00  -1.4249634306063858e-04 4.3165947508527140e-04 0.0000000000000000e+00  -8.3642688950883115e-05 2.3144649709149720e-04 0.0000000000000000e+00  0.0000000000000000e+00 0.0000000000000000e+00 0.0000000000000000e+00  0.0000000000000000e+00 0.0000000000000000e+00 0.0000000000000000e+00  2.4699576399287229e-04 5.4699904611123110e-04 0.0000000000000000e+00  4.0102100471101868e-04 1.0327726180710658e-03 0.0000000000000000e+00  3.9130204207234702e-04 1.3944958122571452e-03 0.0000000000000000e+00  1.9792949304731644e-04 1.5724599018512653e-03 0.0000000000000000e+00  -2.6011528929518004e-04 1.2659312729387505e-03 0.0000000000000000e+00  -4.6386332026226719e-04 6.2969578881770429e-04 0.0000000000000000e+00  -3.7083365337234830e-04 -3.6290808029372701e-05 0.0000000000000000e+00  -1.5384221886627564e-04 -4.0498065693020537e-04 0.0000000000000000e+00  6.4020296573173667e-05 -4.7915142285157069e-04 0.0000000000000000e+00  2.5971069007824397e-04 -3.6303228828609601e-04 0.0000000000000000e+00  4.1078430991598727e-04 -3.9771484327297474e-05 0.0000000000000000e+00  4.7303898663462898e-04 5.0757918669350568e-04 0.0000000000000000e+00  3.7362337112150252e-04 1.0731197814531446e-03 0.0000000000000000e+00  -9.2667290135507822e-06 1.3478705224438923e-03 0.0000000000000000e+00  -2.6934767435921302e-04 1.2444711139933302e-03 0.0000000000000000e+00  -3.3073814065507148e-04 9.3813156201435794e-04 0.0000000000000000e+00  -2.1537743622540632e-04 5.0082698197021532e-04 0.0000000000000000e+00  0.0000000000000000e+00 0.0000000000000000e+00 0.0000000000000000e+00  0.0000000000000000e+00 0.0000000000000000e+00 0.0000000000000000e+00  7.5792423484256075e-04 1.0861585120234306e-03 0.0000000000000000e+00  1.2651902465055764e-03 2.0915278042703657e-03 0.0000000000000000e+00  1.2799341903555262e-03 2.9066710169570434e-03 0.0000000000000000e+00  5.9737301032287559e-04 3.3518029148886250e-03 0.0000000000000000e+00  -3.0018084977262818e-04 1.9388533438935080e-03 0.0000000000000000e+00  -1.1753105478867214e-04 2.8168191632055881e-04 0.0000000000000000e+00  2.3510527135590597e-04 -5.1857069077955670e-04 0.0000000000000000e+00  2.7306030500939398e-04 -6.0017819056103596e-04 0.0000000000000000e+00  7.6949302662944659e-05 -6.2285632501867774e-04 0.0000000000000000e+00  -6.9537702007377761e-05 -7.0576236329773355e-04 0.0000000000000000e+00  -4.7690861519249516e-06 -3.8040224194160071e-04 0.0000000000000000e+00  3.9029478769202431e-04 1.7191098192512736e-04 0.0000000000000000e+00  5.3238882637654961e-04 1.5623477086994966e-03 0.0000000000000000e+00  -3.3380405656696979e-04 3.1357812177637678e-03 0.0000000000000000e+00  -1.1700715143768880e-03 2.7271368057943555e-03 0.0000000000000000e+00  -1.2258099783747946e-03 1.9682406672729990e-03 0.0000000000000000e+00  -7.4702929130266262e-04 1.0241286301482808e-03 0.0000000000000000e+00  0.0000000000000000e+00 0.0000000000000000e+00 0.0000000000000000e+00  0.0000000000000000e+00 0.0000000000000000e+00 0.0000000000000000e+00  2.2705093295306588e-03 1.9476891590142237e-03 0.0000000000000000e+00  4.0984717466814140e-03 3.9099031855348958e-03 0.0000000000000000e+00  4.9567812420813415e-03 5.8968789192586270e-03 0.0000000000000000e+00  4.1124472306619244e-03 7.9084385826869649e-03 0.0000000000000000e+00  2.6786806807368026e-03 3.3165019775261736e-03 0.0000000000000000e+00  2.9443414940512882e-03 -6.2309209514448561e-04 0.0000000000000000e+00  2.3819263559288484e-03 8.8538040742534006e-05 0.0000000000000000e+00  1.1274636891389416e-03 3.1751501670451048e-04 0.0000000000000000e+00  2.1169603600219744e-04 3.7370218796746506e-04 0.0000000000000000e+00  -6.9366122939307912e-04 3.6656293039221441e-04 0.0000000000000000e+00  -1.9001362520889653e-03 3.8059401268801112e-04 0.0000000000000000e+00  -2.9591764539230103e-03 -1.0406772742212191e-03 0.0000000000000000e+00  -2.8118531064597768e-03 2.6135633342298853e-03 0.0000000000000000e+00  -4.4131046424936088e-03 7.4495076108532432e-03 0.0000000000000000e+00  -5.1907697946893686e-03 5.6091549149206391e-03 0.0000000000000000e+00  -4.2576049979732447e-03 3.7382893924494502e-03 0.0000000000000000e+00  -2.3507897603073894e-03 1.8669118826835297e-03 0.0000000000000000e+00  0.0000000000000000e+00 0.0000000000000000e+00 0.0000000000000000e+00  0.0000000000000000e+00 0.0000000000000000e+00 0.0000000000000000e+00  5.5487483378102382e-03 2.7494381898817049e-03 0.0000000000000000e+00  1.0802952209462141e-02 5.6263903296414116e-03 0.0000000000000000e+00  1.5430067375621520e-02 8.7834437537285485e-03 0.0000000000000000e+00  1.9017341921704001e-02 1.2433531934614507e-02 0.0000000000000000e+00  1.8280717791028359e-02 4.0145423802536995e-03 0.0000000000000000e+00  1.8976640450542287e-02 -4.3214392795401912e-03 0.0000000000000000e+00  1.3147912184425181e-02 -3.2889730183053708e-03 0.0000000000000000e+00  6.6284855079264335e-03 -2.7190689999901131e-03 0.0000000000000000e+00  -1.5794984756882440e-04 -2.5884209673882851e-03 0.0000000000000000e+00  -7.0221401922516934e-03 -2.9129074208516996e-03 0.0000000000000000e+00  -1.3806649580872471e-02 -3.7910541945478642e-03 0.0000000000000000e+00  -2.0204392030295969e-02 -5.4709679271754477e-03 0.0000000000000000e+00  -1.9490119805578486e-02 3.3393446737131991e-03 0.0000000000000000e+00  -1.9941129050216867e-02 1.2223428758194939e-02 0.0000000000000000e+00  -1.6044181883032169e-02 8.6093937630619954e-03 0.0000000000000000e+00  -1.1178693535859870e-02 5.5080369991305864e-03 0.0000000000000000e+00  -5.7271993959121465e-03 2.6903783209875636e-03 0.0000000000000000e+00  0.0000000000000000e+00 0.0000000000000000e+00 0.0000000000000000e+00  0.0000000000000000e+00 0.0000000000000000e+00 0.0000000000000000e+00  9.9957992627077424e-03 3.0392262268876787e-03 0.0000000000000000e+00  2.0000776769952818e-02 6.2191720384757359e-03 0.0000000000000000e+00  3.0037014201175775e-02 9.6930447623472683e-03 0.0000000000000000e+00  4.0158899789458843e-02 1.3638622627869218e-02 0.0000000000000000e+00  4.0266016925543664e-02 3.7405465053612585e-03 0.0000000000000000e+00  4.0358021088729705e-02 -6.2829205506223116e-03 0.0000000000000000e+00  2.6694392800006031e-02 -4.8197408142192557e-03 0.0000000000000000e+00  1.3205125282439381e-02 -4.0017400488202969e-03 0.0000000000000000e+00  -2.1916605225943020e-04 -3.7329632025142057e-03 0.0000000000000000e+00  -1.3683683215244411e-02 -3.9812886603400278e-03 0.0000000000000000e+00  -2.7287141687944792e-02 -4.7608043447430869e-03 0.0000000000000000e+00  -4.1107807614457037e-02 -6.1142114397699961e-03 0.0000000000000000e+00  -4.1203725814768818e-02 3.6723397500401144e-03 0.0000000000000000e+00  -4.1247518670108868e-02 1.3396919489079579e-02 0.0000000000000000e+00  -3.0748441393772277e-02 9.5512845920014949e-03 0.0000000000000000e+00  -2.0430130842309567e-02 6.1384203553483223e-03 0.0000000000000000e+00  -1.0197907461890506e-02 3.0022165270218834e-03 0.0000000000000000e+00  0.0000000000000000e+00 0.0000000000000000e+00 0.0000000000000000e+00  0.0000000000000000e+00 0.0000000000000000e+00 0.0000000000000000e+00  1.4393353300173209e-02 2.7648639464366272e-03 0.0000000000000000e+00  2.9052479736133632e-02 5.6335495955920781e-03 0.0000000000000000e+00  4.4267400723496379e-02 8.7117628188027076e-03 0.0000000000000000e+00  6.0374604834118016e-02 1.2107446051886831e-02 0.0000000000000000e+00  6.0949515761361810e-02 3.5901952852444396e-03 0.0000000000000000e+00  6.0436393801769385e-02 -4.8847579089902182e-03 0.0000000000000000e+00  3.9576738465920865e-02 -3.7801899767058939e-03 0.0000000000000000e+00  1.9536255623558284e-02 -3.0959123650861047e-03 0.0000000000000000e+00  -1.2044186117234120e-04 -2.8167057976373456e-03 0.0000000000000000e+00  -1.9805720375884316e-02 -2.9324459815416723e-03 0.0000000000000000e+00  -3.9932466502640096e-02 -3.4425148172405632e-03 0.0000000000000000e+00  -6.0940495644160396e-02 -4.3537075604021839e-03 0.0000000000000000e+00  -6.1530458697400064e-02 3.9151872782612002e-03 0.0000000000000000e+00  -6.0992335592973332e-02 1.2188448496028138e-02 0.0000000000000000e+00  -4.4690061540089233e-02 8.7568158148593981e-03 0.0000000000000000e+00  -2.9313210451210811e-02 5.6584736954773604e-03 0.0000000000000000e+00  -1.4517060785721722e-02 2.7761592566797177e-03 0.0000000000000000e+00  0.0000000000000000e+00 0.0000000000000000e+00 0.0000000000000000e+00  0.0000000000000000e+00 0.0000000000000000e+00 0.0000000000000000e+00  1.7712839008115759e-02 2.0748728358365390e-03 0.0000000000000000e+00  3.5857800692203574e-02 4.2084335983514519e-03 0.0000000000000000e+00  5.4889678652799354e-02 6.4584064315410649e-03 0.0000000000000000e+00  7.5307460280221464e-02 8.8803814084988508e-03 0.0000000000000000e+00  7.6176550562454773e-02 3.5349149557089674e-03 0.0000000000000000e+00  7.5363267928841751e-02 -1.8056038117388040e-03 0.0000000000000000e+00  4.9223032629991496e-02 -1.0692283234005502e-03 0.0000000000000000e+00  2.4352149474272274e-02 -5.7877445906590551e-04 0.0000000000000000e+00  9.3006677467472078e-05 -3.2954262145852353e-04 0.0000000000000000e+00  -2.4180719180349992e-02 -3.1499167289665846e-04 0.0000000000000000e+00  -4.9093647411508082e-02 -5.2808938217253790e-04 0.0000000000000000e+00  -7.5302031599791180e-02 -9.5969612387476072e-04 0.0000000000000000e+00  -7.6168267160304004e-02 4.0918509189032714e-03 0.0000000000000000e+00  -7.5326287036305992e-02 9.1263358263598358e-03 0.0000000000000000e+00  -5.4884484383322003e-02 6.6257523417572114e-03 0.0000000000000000e+00  -3.5844920185339399e-02 4.3123011077625308e-03 0.0000000000000000e+00  -1.7703506297113449e-02 2.1246973291796567e-03 0.0000000000000000e+00  0.0000000000000000e+00 0.0000000000000000e+00 0.0000000000000000e+00  0.0000000000000000e+00 0.0000000000000000e+00 0.0000000000000000e+00  1.9291315764614587e-02 1.1503235463207705e-03 0.0000000000000000e+00  3.9090619173328241e-02 2.3173091643844770e-03 0.0000000000000000e+00  5.9925346291758712e-02 3.5159579607076477e-03 0.0000000000000000e+00  8.2361781872643439e-02 4.7580589899235337e-03 0.0000000000000000e+00  8.3356196640251748e-02 3.5077040753560104e-03 0.0000000000000000e+00  8.2394079546475416e-02 2.2635780045418804e-03 0.0000000000000000e+00  5.3840290389956649e-02 2.6191120218082235e-03 0.0000000000000000e+00  2.6745828792913325e-02 2.8949951613795742e-03 0.0000000000000000e+00  3.6545791708873218e-04 3.0897113953680926e-03 0.0000000000000000e+00  -2.6018591173193328e-02 3.2066240066855635e-03 0.0000000000000000e+00  -5.3123646168655038e-02 3.2543971069177945e-03 0.0000000000000000e+00  -8.1693540956499347e-02 3.2472368650575223e-03 0.0000000000000000e+00  -8.2672902139954360e-02 4.1706815346074849e-03 0.0000000000000000e+00  -8.1694046495503964e-02 5.0822799978118196e-03 0.0000000000000000e+00  -5.9423036573748166e-02 3.7451446523353383e-03 0.0000000000000000e+00  -3.8754946605827595e-02 2.4634519798226876e-03 0.0000000000000000e+00  -1.9123191821081523e-02 1.2213866383752484e-03 0.0000000000000000e+00  -1.2019302307378633e-09 -3.9010769929764327e-10 0.0000000000000000e+00  0.0000000000000000e+00 0.0000000000000000e+00 0.0000000000000000e+00  1.8826204073541280e-02 1.5933612930246174e-04 0.0000000000000000e+00  3.8156930886455435e-02 2.9953686228964050e-04 0.0000000000000000e+00  5.8512590852480999e-02 3.9957490947572924e-04 0.0000000000000000e+00  8.0445385739123756e-02 4.3457138316819587e-04 0.0000000000000000e+00  8.1422926374959820e-02 3.5226033546468141e-03 0.0000000000000000e+00  8.0470793350316511e-02 6.6184218668429726e-03 0.0000000000000000e+00  5.2669817784500257e-02 6.6238422932148261e-03 0.0000000000000000e+00  2.6306154233491006e-02 6.6920496266027803e-03 0.0000000000000000e+00  6.5248191305438568e-04 6.8177619307779993e-03 0.0000000000000000e+00  -2.4995992391062774e-02 7.0025453735221860e-03 0.0000000000000000e+00  -5.1343627916993505e-02 7.2547371610162288e-03 0.0000000000000000e+00  -7.9116574928588701e-02 7.5895768672209858e-03 0.0000000000000000e+00  -8.0058550941196849e-02 4.1853389008069406e-03 0.0000000000000000e+00  -7.9084298259131838e-02 7.7443845105873584e-04 0.0000000000000000e+00  -5.7505862414416645e-02 6.4260758961447141e-04 0.0000000000000000e+00  -3.7492153989593956e-02 4.5595259997926893e-04 0.0000000000000000e+00  -1.8495643925519532e-02 2.3585657768326602e-04 0.0000000000000000e+00  0.0000000000000000e+00 0.0000000000000000e+00 0.0000000000000000e+00  0.0000000000000000e+00 0.0000000000000000e+00 0.0000000000000000e+00  1.6330928719571845e-02 -7.5515936755760234e-04 0.0000000000000000e+00  3.3097987568350092e-02 -1.5576363758076023e-03 0.0000000000000000e+00  5.0748818314503036e-02 -2.4566379284800617e-03 0.0000000000000000e+00  6.9757413118435654e-02 -3.5056146202055269e-03 0.0000000000000000e+00  7.0605265647480209e-02 3.5804411015384003e-03 0.0000000000000000e+00  6.9788816161503509e-02 1.0673925169103182e-02 0.0000000000000000e+00  4.5798486982767513e-02 1.0379299169891129e-02 0.0000000000000000e+00  2.3048883432252119e-02 1.0260847948563459e-02 0.0000000000000000e+00  9.1745477824975625e-04 1.0311301015888001e-02 0.0000000000000000e+00  -2.1201683203100452e-02 1.0530732204030804e-02 0.0000000000000000e+00  -4.3913838154522385e-02 1.0926648428967388e-02 0.0000000000000000e+00  -6.7840958570483403e-02 1.1514072829896624e-02 0.0000000000000000e+00  -6.8625012172964309e-02 4.1560060923847945e-03 0.0000000000000000e+00  -6.7771832714199301e-02 -3.2056298689288835e-03 0.0000000000000000e+00  -4.9286318287121066e-02 -2.2403126941177897e-03 0.0000000000000000e+00  -3.2134746902731215e-02 -1.4175290404211116e-03 0.0000000000000000e+00  -1.5852895583512976e-02 -6.8636113739884298e-04 0.0000000000000000e+00  0.0000000000000000e+00 0.0000000000000000e+00 0.0000000000000000e+00  0.0000000000000000e+00 0.0000000000000000e+00 0.0000000000000000e+00  1.2077932878206908e-02 -1.4806727610488382e-03 0.0000000000000000e+00  2.4473985823313553e-02 -3.0285906274652623e-03 0.0000000000000000e+00  3.7515225572449705e-02 -4.7130250500137154e-03 0.0000000000000000e+00  5.1544483194588132e-02 -6.6071253339043583e-03 0.0000000000000000e+00  5.2175869212720050e-02 3.6780208035735711e-03 0.0000000000000000e+00  5.1589981125228189e-02 1.3968939858091741e-02 0.0000000000000000e+00  3.4008653114479211e-02 1.3433879004030411e-02 0.0000000000000000e+00  1.7340096235068998e-02 1.3158393191976293e-02 0.0000000000000000e+00  1.1312414662902244e-03 1.3133338164289354e-02 0.0000000000000000e+00  -1.5060749259561725e-02 1.3357497518593008e-02 0.0000000000000000e+00  -3.1675866521284651e-02 1.3837234687050783e-02 0.0000000000000000e+00  -4.9166598099715221e-02 1.4587013041619445e-02 0.0000000000000000e+00  -4.9703831128643600e-02 4.1009230177032263e-03 0.0000000000000000e+00  -4.9060838709004143e-02 -6.3866700552620941e-03 0.0000000000000000e+00  -3.5688019481721456e-02 -4.5530372101291391e-03 0.0000000000000000e+00  -2.3272420643750017e-02 -2.9246075308873225e-03 0.0000000000000000e+00  -1.1481991701886908e-02 -1.4294803759947099e-03 0.0000000000000000e+00  0.0000000000000000e+00 0.0000000000000000e+00 0.0000000000000000e+00  0.0000000000000000e+00 0.0000000000000000e+00 0.0000000000000000e+00  6.5362614639735278e-03 -1.9375259736967888e-03 0.0000000000000000e+00  1.3239808906134824e-02 -3.9537086122575634e-03 0.0000000000000000e+00  2.0283205146726473e-02 -6.1292661504132118e-03 0.0000000000000000e+00  2.7846373362852138e-02 -8.5491169814049788e-03 0.0000000000000000e+00  2.8201060652690613e-02 3.8052503044940429e-03 0.0000000000000000e+00  2.7907676268475446e-02 1.6162227113753976e-02 0.0000000000000000e+00  1.8614030532892116e-02 1.5454900914012283e-02 0.0000000000000000e+00  9.8153988260707044e-03 1.5058777505775962e-02 0.0000000000000000e+00  1.2717599615094004e-03 1.4963619032031143e-02 0.0000000000000000e+00  -7.2507322749176236e-03 1.5166691546631094e-02 0.0000000000000000e+00  -1.5985280612475228e-02 1.5673299660764087e-02 0.0000000000000000e+00  -2.5170719323919372e-02 1.6496817057122876e-02 0.0000000000000000e+00  -2.5405389115074103e-02 4.0319724767437608e-03 0.0000000000000000e+00  -2.5035389542778678e-02 -8.4338084397616170e-03 0.0000000000000000e+00  -1.8216692889012016e-02 -6.0451937853615