<?xml version="1.0"?>
<VTKFile type="UnstructuredGrid"  version="0.1"  >
<UnstructuredGrid>
<Piece  NumberOfPoints="589" NumberOfCells="1080">
<Points>
<DataArray  type="Float64"  NumberOfComponents="3"  format="ascii">-9 0 0  -8 0 0  -7 0 0  -6 0 0  -5 0 0  -4 0 0  -3 0 0  -2 0 0  -1 0 0  0 0 0  1 0 0  2 0 0  3 0 0  4 0 0  5 0 0  6 0 0  7 0 0  8 0 0  9 0 0  -9 2 0  -7.999993426755121 2.000009121117446 0  -6.999986262256634 2.000017156394364 0  -5.999977121305408 2.000023226723528 0  -4.999962839120466 2.000026954646745 0  -3.99997727932162 2.000020035825835 0  -2.999992168021079 2.000013666790751 0  -1.999999585734695 2.000007768181353 0  -1.000001134141485 2.00000308682951 0  1.013094958833279e-06 2.000000961314254 0  1.000003526618879 2.000002178034975 0  2.000003212829768 2.000006361470517 0  2.99999796981367 2.000011432998333 0  3.999987262259968 2.000016620618953 0  4.99997203528118 2.000017945922179 0  5.999983463385326 2.000017581999533 0  6.999990292818477 2.000013711501281 0  7.999995392224718 2.000007462115293 0  9 2 0  -9.000000000009988 4 0  -7.999989218389111 4.000022586060511 0  -6.999980430315543 4.000042172931767 0  -5.999974807477916 4.000055823260509 0  -4.999972130977243 4.000060739680253 0  -3.999992794015035 4.000057409033486 0  -3.000006756224847 4.000039747915637 0  -2.000010685701779 4.000016831262825 0  -1.000005913943957 3.999998364426267 0  3.61419865035675e-06 3.999990720429038 0  1.000013422748039 3.999995940294565 0  2.000019173116468 4.000010634310005 0  3.000016558714709 4.000030463353111 0  4.000004307982128 4.000049970591293 0  4.999985547804443 4.000055089969858 0  5.999985321393787 4.000049190528137 0  6.999987505673766 4.000036938950446 0  7.99999275083558 4.000019775567237 0  9 4 0  -9 6 0  -7.999977035223218 6.00004804995039 0  -6.999961937370167 6.000090937649645 0  -5.999960708360528 6.000123357333409 0  -4.999975048853247 6.00014024603305 0  -4.000014827961517 6.000113967113184 0  -3.000032977574102 6.00005959330812 0  -2.0000259330119 6.000002710697911 0  -1.000008385849618 5.999971199749631 0  9.179346568681603e-06 5.999964674338544 0  1.000024769382833 5.999974304418454 0  2.000036524521893 6.000001247292535 0  3.000040909867122 6.000046748883958 0  4.000031884429744 6.000093537886144 0  4.999999174909028 6.000115667681683 0  5.999977536570016 6.000106209312014 0  6.999972474488512 6.000079815543859 0  7.999982092698574 6.000042539563147 0  9 6 0  -9 8 0  -7.999933373496174 8.000094172818571 0  -6.999887965306066 8.000181585085407 0  -5.999884329298705 8.000253025720928 0  -4.999939981113553 8.000293291868974 0  -4.000016842033193 8.000172964997271 0  -3.000001983989264 8.000031722108478 0  -1.999972594819517 7.999963450814793 0  -0.9999699566459282 7.999956396164134 0  1.27935572077693e-05 7.999954481140375 0  0.999999533162987 7.999947742426809 0  2.000004018579427 7.99997479273071 0  3.00003594661821 8.000021007912478 0  4.000046369419098 8.000136593666207 0  4.999973066063094 8.000267007977429 0  5.999903439383425 8.000230983525126 0  6.999898713998077 8.000166231416124 0  7.999938271356045 8.000086365679008 0  9 8 0  -9 10 0  -7.999804787963467 10.00016737850679 0  -6.999646859569221 10.00033618189212 0  -5.999570748673881 10.0005074957164 0  -4.999638366030532 10.0006816596211 0  -3.999760872024069 10.00029187045141 0  -2.99973984112422 9.999956738739719 0  -1.999788681875704 10.00001651813629 0  -0.9998959278296065 10.00003577783797 0  2.575477898863822e-05 10.00004045695542 0  0.9999485855186725 10.00003988503009 0  1.999846694124675 10.00004104734951 0  2.999755917751652 9.999924303794185 0  3.999765594816252 10.00022741945112 0  4.999632166612833 10.00062706893656 0  5.999569636005786 10.00047074535244 0  6.999647759553659 10.00031314451577 0  7.999805724126284 10.00015621846315 0  9 10 0  -9 12 0  -7.999526832738503 12.00023497169772 0  -6.999078100283328 12.00048088394054 0  -5.998681513084139 12.00075082158564 0  -4.998371249045332 12.00106306770408 0  -3.998434907599275 12.00035034187535 0  -2.998377797180451 11.99964407272644 0  -1.99886571140474 11.99973244843724 0  -0.9994120584329655 11.99978220950255 0  1.852523370115714e-05 11.99979536493986 0  0.9994415139027655 11.9997707045593 0  1.99886946164436 11.9997001539462 0  2.998326903440099 11.99956323849139 0  3.998382060330776 12.0002878351476 0  4.998344418629089 12.00101778598711 0  5.9986727274664 12.00071579039312 0  6.999077197743145 12.00045746547734 0  7.999527783646017 12.00022330700642 0  9 12 0  -9 14 0  -7.999150651156175 14.00025890131051 0  -6.998299980186968 14.00052965510021 0  -5.997445651202334 14.00082516245874 0  -4.996582276234539 14.00116036826049 0  -3.996575076378819 14.00032403895358 0  -2.996569781783261 13.99947685372475 0  -1.997709926330072 13.99960301789404 0  -0.9988363394551216 13.99967522315749 0  4.17356912852679e-05 13.99970167905518 0  0.9989152372564576 13.99968525445859 0  1.997775498220017 13.9996249621098 0  2.996615403675646 13.99951742352447 0  3.996602910187949 14.00031316808583 0  4.996598871606965 14.00110351303993 0  5.997470103781524 14.00078650065149 0  6.99832155051738 14.00050532734634 0  7.999162935283514 14.00024710201116 0  9 14 0  -9 16 0  -7.998779090947091 16.0002354866491 0  -6.997535394101751 16.00047955046768 0  -5.996244207319119 16.00074091670545 0  -4.994876630374804 16.00102842034933 0  -3.994830033412059 16.00030902782612 0  -2.994874908729621 15.9995933877963 0  -1.996610763618032 15.99968994382483 0  -0.9982793458248569 15.9997516514865 0  8.321321295972289e-05 15.99977988842969 0  0.9984426278351111 15.99977563906172 0  1.996764501691817 15.99973911509363 0  2.995012201970882 15.99966992492419 0  3.994959821133923 16.00033145172005 0  4.995003918410204 16.00099347825934 0  5.996344823852215 16.00071408267497 0  6.997605068580318 16.00046155734502 0  7.99881472622689 16.00022648710629 0  9 16 0  -9 18 0  -7.998497970477295 18.00017778009015 0  -6.996959508893875 18.00036030401785 0  -5.995346300551189 18.0005522283333 0  -4.993616155435194 18.00075796866803 0  -3.993544622346334 18.00030411309688 0  -2.993613395009918 17.99985079915275 0  -1.995782836917129 17.99991668210473 0  -0.9978479490606855 17.99996239918244 0  0.0001371780693332935 17.99998847250709 0  0.9981210140494867 17.99999553962056 0  1.996052087617182 17.99998433029546 0  2.99387652807195 17.99995576735837 0  3.993803040787838 18.00034607926738 0  4.993872168514279 18.00073509277618 0  5.995540150639256 18.00053432474738 0  6.997089665136257 18.00034805336806 0  7.998563334608019 18.00017156956546 0  9 18 0  -9 20 0  -7.998361923655477 20.00010108616733 0  -6.996681321722691 20.00020346968934 0  -5.99491402815307 20.00030830671639 0  -4.993012569149731 20.00041644980875 0  -3.992930546809786 20.00030329050679 0  -2.993010858253538 20.00019052231462 0  -1.995374625765312 20.00022439278082 0  -0.9976186696575213 20.00025204104385 0  0.000196218903877426 20.00027339568235 0  0.9980114165751 20.00028884782345 0  1.995768355822937 20.0002992369178 0  2.993406409776497 20.00030588987649 0  3.993325041744639 20.00035428974918 0  4.993404909135962 20.00040159163934 0  5.99520726757609 20.00029661621084 0  6.996876361428606 20.00019541563952 0  7.998459314064154 20.00009698206729 0  8.999999999963647 20.00000000000104 0  -9 22 0  -7.998395378310854 22.0000191884061 0  -6.996748627384346 22.00003681429497 0  -5.995016292114329 22.00005115611355 0  -4.993152251322541 22.00006017038185 0  -3.993072055641639 22.00030638989257 0  -2.993151436435599 22.00055281435393 0  -1.995447709753922 22.00055709220203 0  -0.9976262655489958 22.00056696522974 0  0.0002539939656913386 22.00058203528878 0  0.998135933924402 22.00060250416909 0  1.995962487617152 22.00062916274097 0  2.993674958579323 22.00066340253938 0  3.99359733156686 22.00035767096331 0  4.993675766423772 22.00005097127332 0  5.995405439444464 22.00004380212836 0  6.997006433039688 22.00003169882159 0  7.998523799000392 22.00001656783935 0  9 22 0  -9 24 0  -7.998596742459234 23.99994353842722 0  -6.997156983476748 23.99988328975263 0  -5.995643240490577 23.99981530340325 0  -4.994016020579539 23.999735309025 0  -3.993947343542815 24.00031191738343 0  -2.994016181590467 24.00088848761035 0  -1.995993969303343 24.00086731488636 0  -0.9978701913414944 24.00086100910677 0  0.0003050920756938425 24.0008689848145 0  0.9984831578374693 24.00089129814972 0  1.996615358476407 24.00092864365384 0  2.994651861853332 24.00098235939004 0  3.994587032352605 24.00035643883911 0  4.994654145352856 23.99972960302561 0  5.996116399640211 23.99981071972186 0  6.997469869657371 23.99988008853557 0  7.998752424264945 23.99994189430593 0  9 24 0  -9 26 0  -7.99894343169068 25.99988304656092 0  -6.997859925897795 25.99976071768629 0  -5.996721917134111 25.99962747441361 0  -4.995500480884981 25.99947745972595 0  -3.995450501662232 26.00031858995714 0  -2.995501459040272 26.00115952524525 0  -1.996948691256838 26.00111785798861 0  -0.9983211358796495 26.00109771518845 0  0.0003451566532209865 26.00109836728876 0  0.9990150382302293 26.00111973861203 0  1.997653442272162 26.00116240565457 0  2.996224557798156 26.00122759918651 0  3.996179252191348 26.00035114060256 0  4.996227808243593 25.99947391925843 0  5.997260553858074 25.99962464267676 0  6.998215787604534 25.99975874483643 0  7.999120398703348 25.99988203430851 0  9 26 0  -9 28 0  -7.999397090590007 27.99984406844448 0  -6.998779451000575 27.99968180680531 0  -5.99813206854543 27.99950672310474 0  -4.997439220185358 27.99931200635448 0  -3.997412551937825 28.00032549352627 0  -2.997440551135512 28.00133869839712 0  -1.998204713291601 28.00128208693149 0  -0.9989279956757446 28.00125102020406 0  0.0003709669073232829 28.00124464490911 0  0.9996740128502494 28.00126275948517 0  1.998963062036679 28.00130581309085 0  2.998219727198971 28.00137490612944 0  3.998198400868772 28.00034267971967 0  4.99822372888176 27.9993099042474 0  5.998712723601291 27.99950508167502 0  6.999162913824993 27.999680
[...]
<PointData  Vectors="f_44-2"> 
<DataArray  type="Float64"  Name="f_44-2"  NumberOfComponents="3" format="ascii">0.0000000000000000e+00 0.0000000000000000e+00 0.0000000000000000e+00  0.0000000000000000e+00 0.0000000000000000e+00 0.0000000000000000e+00  0.0000000000000000e+00 0.0000000000000000e+00 0.0000000000000000e+00  0.0000000000000000e+00 0.0000000000000000e+00 0.0000000000000000e+00  0.0000000000000000e+00 0.0000000000000000e+00 0.0000000000000000e+00  0.0000000000000000e+00 0.0000000000000000e+00 0.0000000000000000e+00  0.0000000000000000e+00 0.0000000000000000e+00 0.0000000000000000e+00  0.0000000000000000e+00 0.0000000000000000e+00 0.0000000000000000e+00  0.0000000000000000e+00 0.0000000000000000e+00 0.0000000000000000e+00  0.0000000000000000e+00 0.0000000000000000e+00 0.0000000000000000e+00  0.0000000000000000e+00 0.0000000000000000e+00 0.0000000000000000e+00  0.0000000000000000e+00 0.0000000000000000e+00 0.0000000000000000e+00  0.0000000000000000e+00 0.0000000000000000e+00 0.0000000000000000e+00  0.0000000000000000e+00 0.0000000000000000e+00 0.0000000000000000e+00  0.0000000000000000e+00 0.0000000000000000e+00 0.0000000000000000e+00  0.0000000000000000e+00 0.0000000000000000e+00 0.0000000000000000e+00  0.0000000000000000e+00 0.0000000000000000e+00 0.0000000000000000e+00  0.0000000000000000e+00 0.0000000000000000e+00 0.0000000000000000e+00  0.0000000000000000e+00 0.0000000000000000e+00 0.0000000000000000e+00  0.0000000000000000e+00 0.0000000000000000e+00 0.0000000000000000e+00  1.0710885975133049e-04 1.5647971137544992e-04 0.0000000000000000e+00  2.2529968674341524e-04 2.9423436438521914e-04 0.0000000000000000e+00  3.7949133448483098e-04 3.9807635215816458e-04 0.0000000000000000e+00  6.2569002227219140e-04 4.6145755252849097e-04 0.0000000000000000e+00  3.7859127068448270e-04 3.4439670912254233e-04 0.0000000000000000e+00  1.2207119087199856e-04 2.3589511962625578e-04 0.0000000000000000e+00  -6.2231911311522051e-06 1.3520278969406406e-04 0.0000000000000000e+00  -3.3755453712934293e-05 5.5747586729359183e-05 0.0000000000000000e+00  1.5047462546338833e-06 2.1201945528253596e-05 0.0000000000000000e+00  4.0949469977461229e-05 4.5897772451035100e-05 0.0000000000000000e+00  2.7576875274711177e-05 1.2417334776193578e-04 0.0000000000000000e+00  -7.7258359968857183e-05 2.2074704514339673e-04 0.0000000000000000e+00  -2.8621050338927190e-04 3.2552810630925795e-04 0.0000000000000000e+00  -5.8721912416873025e-04 3.7226973648114955e-04 0.0000000000000000e+00  -3.5654010438147761e-04 3.5287661013362707e-04 0.0000000000000000e+00  -2.1237561529270459e-04 2.7060852181368990e-04 0.0000000000000000e+00  -1.0132768502462977e-04 1.4604680190210133e-04 0.0000000000000000e+00  0.0000000000000000e+00 0.0000000000000000e+00 0.0000000000000000e+00  0.0000000000000000e+00 0.0000000000000000e+00 0.0000000000000000e+00  1.6989422680705930e-04 3.8787595439988398e-04 0.0000000000000000e+00  3.0659601047940203e-04 7.2413167758896317e-04 0.0000000000000000e+00  3.9095701858781428e-04 9.5800246545049846e-04 0.0000000000000000e+00  4.2743783007187199e-04 1.0407415295453832e-03 0.0000000000000000e+00  6.9665956480174392e-05 9.8995534741097417e-04 0.0000000000000000e+00  -1.7393440762526180e-04 6.8907325910490995e-04 0.0000000000000000e+00  -2.4488995438015225e-04 2.9630816549376264e-04 0.0000000000000000e+00  -1.6594854898424540e-04 -1.9257931211661501e-05 0.0000000000000000e+00  -5.0886725906292430e-06 -1.4590830496800396e-04 0.0000000000000000e+00  1.5920065702673003e-04 -4.4946334732300491e-05 0.0000000000000000e+00  2.4948880270937843e-04 2.2667694817145407e-04 0.0000000000000000e+00  1.8839656064833588e-04 5.9483422050766218e-04 0.0000000000000000e+00  -4.7265844973065193e-05 9.6596385575739086e-04 0.0000000000000000e+00  -3.9954880900819724e-04 1.0949329186726022e-03 0.0000000000000000e+00  -3.6702592409376992e-04 9.5726257775629589e-04 0.0000000000000000e+00  -2.9228891710174457e-04 7.1040760174356592e-04 0.0000000000000000e+00  -1.6378058962287657e-04 3.7805068960963443e-04 0.0000000000000000e+00  0.0000000000000000e+00 0.0000000000000000e+00 0.0000000000000000e+00  0.0000000000000000e+00 0.0000000000000000e+00 0.0000000000000000e+00  3.6546978734798796e-04 8.2583080093731034e-04 0.0000000000000000e+00  5.9725681771753366e-04 1.5636401922090844e-03 0.0000000000000000e+00  5.9394159112407586e-04 2.1225233219655530e-03 0.0000000000000000e+00  3.2558523812021233e-04 2.4146940863530664e-03 0.0000000000000000e+00  -3.6618916065243656e-04 1.9724415366168739e-03 0.0000000000000000e+00  -6.8667976781097673e-04 1.0428707296177531e-03 0.0000000000000000e+00  -5.7603985383152131e-04 6.6717841446483771e-05 0.0000000000000000e+00  -2.8125888569333621e-04 -4.7799236357568497e-04 0.0000000000000000e+00  1.8977956881109404e-05 -5.8809330629021285e-04 0.0000000000000000e+00  2.8859461022973429e-04 -4.0933155767596213e-04 0.0000000000000000e+00  4.9095761009790425e-04 8.3593954976115599e-05 0.0000000000000000e+00  5.5917628538915175e-04 9.1416825149012227e-04 0.0000000000000000e+00  3.8506221112748299e-04 1.7756911288012425e-03 0.0000000000000000e+00  -2.1121757375440581e-04 2.2041810344862974e-03 0.0000000000000000e+00  -5.4636879342896878e-04 1.9984508169985636e-03 0.0000000000000000e+00  -5.8730683051485166e-04 1.4922873651994554e-03 0.0000000000000000e+00  -3.6735131331961415e-04 7.9289901062225201e-04 0.0000000000000000e+00  0.0000000000000000e+00 0.0000000000000000e+00 0.0000000000000000e+00  0.0000000000000000e+00 0.0000000000000000e+00 0.0000000000000000e+00  1.0934673599757526e-03 1.6162254097553000e-03 0.0000000000000000e+00  1.8284590330288001e-03 3.1192334580769803e-03 0.0000000000000000e+00  1.8571651583353713e-03 4.3542661812131520e-03 0.0000000000000000e+00  8.7746355900958199e-04 5.0652314026491231e-03 0.0000000000000000e+00  -4.4874840770009629e-04 3.0193473073631236e-03 0.0000000000000000e+00  -2.2673363551074783e-04 6.0712647403698093e-04 0.0000000000000000e+00  2.5186716141157537e-04 -5.7774719264786889e-04 0.0000000000000000e+00  2.8539308542983069e-04 -7.2409709626171197e-04 0.0000000000000000e+00  -1.3139907924900447e-05 -7.6759606201231363e-04 0.0000000000000000e+00  -2.3718269022189923e-04 -8.8208831792539950e-04 0.0000000000000000e+00  -1.5124906391575108e-04 -3.8042421189956390e-04 0.0000000000000000e+00  4.1315012072199960e-04 4.7577806690404388e-04 0.0000000000000000e+00  5.8997616559866713e-04 2.5691700165025519e-03 0.0000000000000000e+00  -7.2569428237342502e-04 4.9226660748571396e-03 0.0000000000000000e+00  -1.9028278832007727e-03 4.2418815925264900e-03 0.0000000000000000e+00  -1.9261988898269242e-03 3.0474547752062822e-03 0.0000000000000000e+00  -1.1607614285478640e-03 1.5820827327171303e-03 0.0000000000000000e+00  0.0000000000000000e+00 0.0000000000000000e+00 0.0000000000000000e+00  0.0000000000000000e+00 0.0000000000000000e+00 0.0000000000000000e+00  3.2571436353406283e-03 2.8609214732142371e-03 0.0000000000000000e+00  5.8911122554475516e-03 5.7489551001142841e-03 0.0000000000000000e+00  7.1558236313929513e-03 8.6859397187075450e-03 0.0000000000000000e+00  6.0123845630197913e-03 1.1682769126679628e-02 0.0000000000000000e+00  3.9140096691619927e-03 5.1006316194159799e-03 0.0000000000000000e+00  4.2109305649852867e-03 -5.8037493599589194e-04 0.0000000000000000e+00  3.3469941250404123e-03 3.5400958290636116e-04 0.0000000000000000e+00  1.5105339493726843e-03 6.5396456725434651e-04 0.0000000000000000e+00  1.4904780179601979e-04 7.2652943850863723e-04 0.0000000000000000e+00  -1.2038416536279332e-03 7.2471471273309422e-04 0.0000000000000000e+00  -3.0010905750076423e-03 7.7286931821319627e-04 0.0000000000000000e+00  -4.5861790103034795e-03 -1.2417834908114212e-03 0.0000000000000000e+00  -4.4171451149788059e-03 4.2071786881616542e-03 0.0000000000000000e+00  -6.8201427291997470e-03 1.1364565337630026e-02 0.0000000000000000e+00  -7.8780379051686909e-03 8.5427276324910907e-03 0.0000000000000000e+00  -6.4226472390722265e-03 5.6879909171356074e-03 0.0000000000000000e+00  -3.5369835535494646e-03 2.8391150564459557e-03 0.0000000000000000e+00  0.0000000000000000e+00 0.0000000000000000e+00 0.0000000000000000e+00  0.0000000000000000e+00 0.0000000000000000e+00 0.0000000000000000e+00  7.9217356614456006e-03 4.0002145633804866e-03 0.0000000000000000e+00  1.5444204063600168e-02 8.1880102899528611e-03 0.0000000000000000e+00  2.2112699479886758e-02 1.2787338643227557e-02 0.0000000000000000e+00  2.7366114345340826e-02 1.8110481859142033e-02 0.0000000000000000e+00  2.6268766450634199e-02 6.1478885157720568e-03 0.0000000000000000e+00  2.7167936069932910e-02 -5.7035160586602560e-03 0.0000000000000000e+00  1.8558335457213023e-02 -4.3087517125625112e-03 0.0000000000000000e+00  9.0011691357740238e-03 -3.5614920165104253e-03 0.0000000000000000e+00  -9.1118097789694174e-04 -3.4318282276261489e-03 0.0000000000000000e+00  -1.0912231059100651e-02 -3.9468377675537444e-03 0.0000000000000000e+00  -2.0773253060876812e-02 -5.2524252268015634e-03 0.0000000000000000e+00  -3.0041552183252523e-02 -7.7117185144726990e-03 0.0000000000000000e+00  -2.9064282132454610e-02 5.3055890168392187e-03 0.0000000000000000e+00  -2.9798521231570972e-02 1.8419701162773052e-02 0.0000000000000000e+00  -2.3924430189562550e-02 1.2981658241318460e-02 0.0000000000000000e+00  -1.6649206625407448e-02 8.3090749631443642e-03 0.0000000000000000e+00  -8.5240066974393586e-03 4.0595764056459670e-03 0.0000000000000000e+00  0.0000000000000000e+00 0.0000000000000000e+00 0.0000000000000000e+00  0.0000000000000000e+00 0.0000000000000000e+00 0.0000000000000000e+00  1.4200341871175469e-02 4.3926126285052467e-03 0.0000000000000000e+00  2.8440314566786560e-02 8.9868711003118912e-03 0.0000000000000000e+00  4.2776295906673902e-02 1.4002129917062629e-02 0.0000000000000000e+00  5.7318224935588608e-02 1.9692132350391175e-02 0.0000000000000000e+00  5.7419887995870611e-02 5.7529840459239348e-03 0.0000000000000000e+00  5.7432977692800570e-02 -8.3635647846903357e-03 0.0000000000000000e+00  3.7528077988165112e-02 -6.3751854238451207e-03 0.0000000000000000e+00  1.7898234478874692e-02 -5.3010064488730052e-03 0.0000000000000000e+00  -1.6133040394216507e-03 -5.0068004471817010e-03 0.0000000000000000e+00  -2.1156949564276332e-02 -5.4498685842365108e-03 0.0000000000000000e+00  -4.0870599708363299e-02 -6.6540327764943287e-03 0.0000000000000000e+00  -6.0858156373792369e-02 -8.6846504036925953e-03 0.0000000000000000e+00  -6.1070754004692883e-02 5.7676223718732319e-03 0.0000000000000000e+00  -6.1219104271050179e-02 2.0130574868653682e-02 0.0000000000000000e+00  -4.5614990979032474e-02 1.4371677552617592e-02 0.0000000000000000e+00  -3.0298818244651547e-02 9.2455243218109422e-03 0.0000000000000000e+00  -1.5120657540767173e-02 4.5245522276500545e-03 0.0000000000000000e+00  0.0000000000000000e+00 0.0000000000000000e+00 0.0000000000000000e+00  0.0000000000000000e+00 0.0000000000000000e+00 0.0000000000000000e+00  2.0343539726767806e-02 3.9806910454895225e-03 0.0000000000000000e+00  4.1090468945402976e-02 8.1065225367864917e-03 0.0000000000000000e+00  6.2677401838260538e-02 1.2525126674602665e-02 0.0000000000000000e+00  8.5612753888745161e-02 1.7385914108873569e-02 0.0000000000000000e+00  8.6388086050510071e-02 5.5477515575491441e-03 0.0000000000000000e+00  8.5558820826408408e-02 -6.2199125419738826e-03 0.0000000000000000e+00  5.5338318914286422e-02 -4.7664099098498006e-03 0.0000000000000000e+00  2.6295730279869124e-02 -3.9058419305323918e-03 0.0000000000000000e+00  -2.1866818874711385e-03 -3.6193727358627163e-03 0.0000000000000000e+00  -3.0695038874134009e-02 -3.8955125546447822e-03 0.0000000000000000e+00  -5.9815525958786316e-02 -4.7368338700828879e-03 0.0000000000000000e+00  -9.0170219061171494e-02 -6.1570897188632841e-03 0.0000000000000000e+00  -9.1085808862608378e-02 6.1087312568953193e-03 0.0000000000000000e+00  -9.0374878569630807e-02 1.8391280485393138e-02 0.0000000000000000e+00  -6.6220571470899978e-02 1.3239273198030912e-02 0.0000000000000000e+00  -4.3436723261899221e-02 8.5672619438847217e-03 0.0000000000000000e+00  -2.1511286206992088e-02 4.2070025368531145e-03 0.0000000000000000e+00  0.0000000000000000e+00 0.0000000000000000e+00 0.0000000000000000e+00  0.0000000000000000e+00 0.0000000000000000e+00 0.0000000000000000e+00  2.4895574805241679e-02 2.9887713848073668e-03 0.0000000000000000e+00  5.0425156751940745e-02 6.0570837523133154e-03 0.0000000000000000e+00  7.7254988267950714e-02 9.2830957846782042e-03 0.0000000000000000e+00  1.0611849005653191e-01 1.2740752530255584e-02 0.0000000000000000e+00  1.0732293398707544e-01 5.5206770528212238e-03 0.0000000000000000e+00  1.0609720944996394e-01 -1.6830628365090343e-03 0.0000000000000000e+00  6.8358793668514828e-02 -7.6948383990668278e-04 0.0000000000000000e+00  3.2416821272081751e-02 -1.9867801066462628e-04 0.0000000000000000e+00  -2.6582680738652296e-03 3.3884151692612332e-05 0.0000000000000000e+00  -3.7753453820638563e-02 -6.5406020225971929e-05 0.0000000000000000e+00  -7.3754534072045130e-02 -4.8951556548162500e-04 0.0000000000000000e+00  -1.1158742912894533e-01 -1.2287879201035804e-03 0.0000000000000000e+00  -1.1288026942124522e-01 6.3959677246719325e-03 0.0000000000000000e+00  -1.1170903311813288e-01 1.4005331047441696e-02 0.0000000000000000e+00  -8.1420162755631770e-02 1.0192220944751789e-02 0.0000000000000000e+00  -5.3188493627149350e-02 6.6452742384025846e-03 0.0000000000000000e+00  -2.6272336568670694e-02 3.2775893158160478e-03 0.0000000000000000e+00  0.0000000000000000e+00 0.0000000000000000e+00 0.0000000000000000e+00  0.0000000000000000e+00 0.0000000000000000e+00 0.0000000000000000e+00  2.6934147673700861e-02 1.6782699958540587e-03 0.0000000000000000e+00  5.4603442781443787e-02 3.3773331234997921e-03 0.0000000000000000e+00  8.3771483057460058e-02 5.1156688017867649e-03 0.0000000000000000e+00  1.1525942341579352e-01 6.9065640394740564e-03 0.0000000000000000e+00  1.1664347045530518e-01 5.5696700617790954e-03 0.0000000000000000e+00  1.1523109110716992e-01 4.2449157964984975e-03 0.0000000000000000e+00  7.4108873851794183e-02 4.6096430729330572e-03 0.0000000000000000e+00  3.5031100872598059e-02 4.8716317666331966e-03 0.0000000000000000e+00  -3.0516703229764904e-03 5.0258810071986881e-03 0.0000000000000000e+00  -4.1152857900998992e-02 5.0749212862837368e-03 0.0000000000000000e+00  -8.0285561285900822e-02 5.0285599744699346e-03 0.0000000000000000e+00  -1.2149877621696822e-01 4.9045113497939944e-03 0.0000000000000000e+00  -1.2294172656552746e-01 6.5782500773617619e-03 0.0000000000000000e+00  -1.2155976028452617e-01 8.2383268670635761e-03 0.0000000000000000e+00  -8.8468669237262085e-02 6.0818792468780598e-03 0.0000000000000000e+00  -5.7721271609402026e-02 4.0059827072022923e-03 0.0000000000000000e+00  -2.8489006157722322e-02 1.9879965993972923e-03 0.0000000000000000e+00  -2.6938568140910584e-09 -7.1714708550531760e-10 0.0000000000000000e+00  0.0000000000000000e+00 0.0000000000000000e+00 0.0000000000000000e+00  2.6052920100041305e-02 2.8412787285272376e-04 0.0000000000000000e+00  5.2830946309031117e-02 5.4031412600194799e-04 0.0000000000000000e+00  8.1082302752473412e-02 7.3795126154690179e-04 0.0000000000000000e+00  1.1160184736711361e-01 8.4099782370996158e-04 0.0000000000000000e+00  1.1294954577402272e-01 5.6830868009266388e-03 0.0000000000000000e+00  1.1156020147140927e-01 1.0532041580491543e-02 0.0000000000000000e+00  7.1595667862427187e-02 1.0403315815865318e-02 0.0000000000000000e+00  3.3625180954480159e-02 1.0376894113609265e-02 0.0000000000000000e+00  -3.3718306044998999e-03 1.0442604027104055e-02 0.0000000000000000e+00  -4.0386661477182825e-02 1.0600411727887478e-02 0.0000000000000000e+00  -7.8410460361288140e-02 1.0860232243717264e-02 0.0000000000000000e+00  -1.1846337882904072e-01 1.1242119688199494e-02 0.0000000000000000e+00  -1.1985696163114648e-01 6.6739346676799116e-03 0.0000000000000000e+00  -1.1848178792231254e-01 2.0921418165739730e-03 0.0000000000000000e+00  -8.6214640406614376e-02 1.6491211537966680e-03 0.0000000000000000e+00  -5.6239415249236570e-02 1.1349290216031392e-03 0.0000000000000000e+00  -2.7753288618511080e-02 5.7762209461573644e-04 0.0000000000000000e+00  0.0000000000000000e+00 0.0000000000000000e+00 0.0000000000000000e+00  0.0000000000000000e+00 0.0000000000000000e+00 0.0000000000000000e+00  2.2292483560778602e-02 -9.9826201151306132e-04 0.0000000000000000e+00  4.5210070191868131e-02 -2.0625729898945677e-03 0.0000000000000000e+00  6.9395116136477530e-02 -3.2616370079325565e-03 0.0000000000000000e+00  9.5524545397637078e-02 -4.6697807047826022e-03 0.0000000000000000e+00  9.6664616776187054e-02 5.8254074721204056e-03 0.0000000000000000e+00  9.5460319542731237e-02 1.6321905954602017e-02 0.0000000000000000e+00  6.1023639386592318e-02 1.5784277571058755e-02 0.0000000000000000e+00  2.8287136818595428e-02 1.5510313087211701e-02 0.0000000000000000e+00  -3.6188622895209038e-03 1.5487565030125165e-02 0.0000000000000000e+00  -3.5542510006702770e-02 1.5714208394385028e-02 0.0000000000000000e+00  -6.8331838954911142e-02 1.6199458450456533e-02 0.0000000000000000e+00  -1.0285644725404870e-01 1.6963675109710221e-02 0.0000000000000000e+00  -1.0404372901958356e-01 6.6758129554093529e-03 0.0000000000000000e+00  -1.0285446437321798e-01 -3.6262505133419234e-03 0.0000000000000000e+00  -7.4864842791580261e-02 -2.4993229000098236e-03 0.0000000000000000e+00  -4.8843730160830635e-02 -1.5639683068781550e-03 0.0000000000000000e+00  -2.4105512673345805e-02 -7.5185733747085029e-04 0.0000000000000000e+00  0.0000000000000000e+00 0.0000000000000000e+00 0.0000000000000000e+00  0.0000000000000000e+00 0.0000000000000000e+00 0.0000000000000000e+00  1.6055912304309541e-02 -2.0160324292225187e-03 0.0000000000000000e+00  3.2568908131606060e-02 -4.1255649242436538e-03 0.0000000000000000e+00  5.0006382647872799e-02 -6.4249395505838504e-03 0.0000000000000000e+00  6.8859969830295367e-02 -9.0158661405757064e-03 0.0000000000000000e+00  6.9666306160680411e-02 5.9680827901794232e-03 0.0000000000000000e+00  6.8772592426931151e-02 2.0950508876765708e-02 0.0000000000000000e+00  4.3569864973731220e-02 2.0100694510699898e-02 0.0000000000000000e+00  1.9591117440689108e-02 1.9631187337066404e-02 0.0000000000000000e+00  -3.7918953058471930e-03 1.9527160796441144e-02 0.0000000000000000e+00  -2.7192555694334576e-02 1.9785530075387855e-02 0.0000000000000000e+00  -5.1224707466246924e-02 2.0414353190843559e-02 0.0000000000000000e+00  -7.6515721710285367e-02 2.1433377466995467e-02 0.0000000000000000e+00  -7.7376909168724792e-02 6.5861456390393074e-03 0.0000000000000000e+00  -7.6505471491847651e-02 -8.2728279402883437e-03 0.0000000000000000e+00  -5.5712469317669190e-02 -5.8812331909666778e-03 0.0000000000000000e+00  -3.6359782874192843e-02 -3.7695603894629878e-03 0.0000000000000000e+00  -1.7947520272733729e-02 -1.8399746362497758e-03 0.0000000000000000e+00  0.0000000000000000e+00 0.0000000000000000e+00 0.0000000000000000e+00  0.0000000000000000e+00 0.0000000000000000e+00 0.0000000000000000e+00  8.0187330694594834e-03 -2.6592971856878467e-03 0.0000000000000000e+00  1.6280510178333707e-02 -5.4288800587782562e-03 0.0000000000000000e+00  2.5032293704003325e-02 -8.4218677219090425e-03 0.0000000000000000e+00  3.4534071223937528e-02 -1.1756892040582631e-02 0.0000000000000000e+00  3.4927779872000617e-02 6.0948374656186466e-03 0.0000000000000000e+00  3.4434069695605501e-02 2.3944655374109291e-02 0.0000000000000000e+00  2.1143032511280000e-02 2.2888179238002532e-02 0.0000000000000000e+00  8.4760590514032542e-03 2.2281748665837785e-02 0.0000000000000000e+00  -3.8905056844031694e-03 2.2109304557396205e-02 0.0000000000000000e+00  -1.6274947305882175e-02 2.2366317770926698e-02 0.0000000000000000e+00  -2.8995462179956046e-02 2.3059737730979697e-02 0.0000000000000000e+00  -4.2376784860391023e-02 2.4208018520113655e-02 0.0000000000000000e+00  -4.2828163155858849e-02 6.4197125268134463e-03 0.0000000000000000e+00  -4.2359600671985985e-02 -1.1375492379492059e-02 0.0000000000000000e+00  -3.0872827268647141e-02 -8.14261810