<?xml version="1.0"?>
<VTKFile type="UnstructuredGrid"  version="0.1"  >
<UnstructuredGrid>
<Piece  NumberOfPoints="589" NumberOfCells="1080">
<Points>
<DataArray  type="Float64"  NumberOfComponents="3"  format="ascii">-9 0 0  -8 0 0  -7 0 0  -6 0 0  -5 0 0  -4 0 0  -3 0 0  -2 0 0  -1 0 0  0 0 0  1 0 0  2 0 0  3 0 0  4 0 0  5 0 0  6 0 0  7 0 0  8 0 0  9 0 0  -9 2 0  -8.000002467772603 1.999996732914696 0  -7.000005201350929 1.999993813707022 0  -6.000008752584026 1.999991518331716 0  -5.000014322282925 1.999989946696795 0  -4.000009107461369 1.999992641399009 0  -3.000003619812466 1.999994905393001 0  -2.000000747738038 1.999996903429546 0  -0.9999998618716501 1.999998474278788 0  -2.145569426673217e-07 1.999999165615405 0  0.9999993320255163 1.999998715247928 0  1.999999875200874 1.999997234842856 0  3.000002162999877 1.999995392923883 0  4.000006443861016 1.999993374818028 0  5.000012513172432 1.999992446190339 0  6.00000755552157 1.99999293002463 0  7.00000446347411 1.999994614625793 0  8.000002114934532 1.999997103472013 0  9 2 0  -9 4 0  -8.00000387230444 3.999992074376046 0  -7.000007132078748 3.999985132128673 0  -6.000009431288001 3.999980141725793 0  -5.000010862166185 3.9999780388376 0  -4.000003605565719 3.99997917112626 0  -2.999998531817373 3.999985099852771 0  -1.999996751870435 3.999992800333266 0  -0.9999978319354547 3.99999896174384 0  -4.925843582561693e-07 4.000001466224123 0  0.999996766519058 3.999999604919087 0  1.999995420050726 3.999994472585871 0  2.999996931616211 3.999987499063427 0  4.00000171476142 3.999980501496909 0  5.000008617804952 3.999978154348662 0  6.000007648598541 3.999981057016497 0  7.000005952894825 3.99998601232939 0  8.000003295422552 3.999992576277177 0  9 4 0  -9 6 0  -8.000007726893099 5.999983482583878 0  -7.000012905068647 5.999968643401325 0  -6.000013583336867 5.9999572152708 0  -5.000009192287008 5.99995087438233 0  -3.999995606395166 5.999959481394406 0  -2.999989139720069 5.999977458441116 0  -1.9999909160909 5.999996294258581 0  -0.9999961933803633 6.000006799040653 0  -1.542744444460205e-06 6.000008976428443 0  0.9999937292479018 6.000005622062427 0  1.999990293797126 5.999996334276272 0  2.999989344809954 5.999980701425471 0  3.999992914199072 5.999964528355862 0  5.000004454255096 5.999956637882908 0  6.000010647676682 5.999960973628714 0  7.000011289334463 5.999970975730487 0  8.000007027619658 5.999984610212546 0  9 6 0  -9 8 0  -8.000021775342541 7.999968178969445 0  -7.000036677301893 7.999938511651516 0  -6.000038012485209 7.999913941000489 0  -5.000019968615127 7.999899348648015 0  -3.999994384878863 7.999938799462575 0  -2.999998475225088 7.999985172463229 0  -2.000007432627571 8.000007893716424 0  -1.000007764983115 8.000010667810564 0  -1.702457175219309e-06 8.000011478683266 0  1.000003003566547 8.00001361617044 0  2.000001767553552 8.000004236624461 0  2.999991502082359 7.999988112895661 0  3.999988617824116 7.999948799257729 0  5.000013744641129 7.999904603448274 0  6.000035853029541 7.999918226390602 0  7.000036238357707 7.99994141082416 0  8.000021822642831 7.99996962385885 0  9 8 0  -9 10 0  -8.000063311940275 9.999944264884645 0  -7.000114712086476 9.999887999973332 0  -6.000139952352176 9.999830764628696 0  -5.000119138969636 9.99977232183188 0  -4.000079052020937 9.999898500652726 0  -3.000084506951129 10.00000722640428 0  -2.000067349202327 9.999989228522111 0  -1.000031722233044 9.999983457926284 0  -5.294698183659388e-06 9.999982064286829 0  1.000020886609072 9.99998212013872 0  2.000055346857946 9.999981282127166 0  3.000086353134673 10.00001900023694 0  4.000083793434333 9.9999170691095 0  5.0001286425342 9.999783127527841 0  6.000147939460892 9.999837241850067 0  7.000120384515661 9.999891736396632 0  8.000066240725678 9.999945988213137 0  9 10 0  -9 12 0  -8.000152471172932 11.99992247913712 0  -7.000297346499272 11.99984138537575 0  -6.000426029661934 11.99975244462738 0  -5.0005278942882 11.99964969254278 0  -4.000507710647187 11.99987789390322 0  -3.000525253107714 12.00010387104439 0  -2.000361470727491 12.00007637320219 0  -1.000180260136354 12.0000613606258 0  7.568564923432059e-06 12.00005814338507 0  1.000197415287812 12.00006715764712 0  2.000385509424439 12.00009113686546 0  3.000564096380793 12.00013696679035 0  4.00054606904091 11.99989540614449 0  5.000558672465735 11.99965197837587 0  6.000447379377658 11.99975475606872 0  7.00031085887968 11.99984304505767 0  8.000159029754274 11.99992332027202 0  9 12 0  -9 14 0  -8.00027196367575 13.99991499516053 0  -7.000544669654424 13.99982617628725 0  -6.000819244831824 13.99972939552049 0  -5.001097846579683 13.99961985497586 0  -4.001100743076511 13.99988443389505 0  -3.001101438727836 14.00015244323918 0  -2.000725399213921 14.00011359597333 0  -1.000355312504996 14.00009209864393 0  1.23698989407548e-05 14.00008531164411 0  1.00038102497416 14.00009235386463 0  2.000753836105253 14.00011361563522 0  3.001133462878165 14.00015027425741 0  4.001137663793132 13.99988542129793 0  5.001139081293637 13.99962230697823 0  6.000847610139973 13.99973026399545 0  7.000562498156074 13.99982643201514 0  8.000280577787748 13.99991504696799 0  9 14 0  -9 16 0  -8.000388419177787 15.99992277391175 0  -7.000784404678299 15.99984282874022 0  -6.001196174842097 15.99975740644626 0  -5.001633315039077 15.99966372387719 0  -4.001648697335853 15.9998874157696 0  -3.001633435331827 16.00010986346438 0  -2.001065690631902 16.00008147295494 0  -1.00052082477765 16.00006403861607 0  1.328192477575815e-05 16.00005720194229 0  1.000548089069507 16.00006071007036 0  2.001095067631758 16.00007454504975 0  3.001666431220235 16.00009886528745 0  4.00168364383374 15.99987805987638 0  5.001669315840646 15.99965706779026 0  6.001222206016202 15.99975295308898 0  7.000801250914275 15.99984004900947 0  8.000396683890472 15.99992143068717 0  9 16 0  -9 18 0  -8.000474538354691 17.99994143048441 0  -7.000960875185276 17.99988139619183 0  -6.001471421637858 17.99981846891655 0  -5.002019823356723 17.99975130659457 0  -4.002042847571786 17.9998875668535 0  -3.002020181816333 18.00002363794733 0  -2.00131468619513 18.0000055673665 0  -1.000643403983156 17.99999363235165 0  1.138702897557038e-05 17.99998775695259 0  1.000666559084871 17.99998780169976 0  2.00133896149624 17.99999357420136 0  3.002046236257613 18.00000479451207 0  4.002070242273128 17.99987239168189 0  5.002047893085288 17.99974039427793 0  6.001491959897542 17.99981081500873 0  7.000974311487188 17.99987653239408 0  8.000481177582026 17.99993906713897 0  9 18 0  -9 20 0  -8.000513398662859 19.99996594471066 0  -7.001040379113512 19.99993153661713 0  -6.001595037118467 19.99989647443014 0  -5.002192498055845 19.99986056170588 0  -4.002218545147503 19.9998868445596 0  -3.002192537403456 19.99991295220664 0  -2.00142707228041 19.99990514964289 0  -1.000700134979255 19.99989901942308 0  7.962397887646133e-06 19.99989466266315 0  1.000716211780491 19.99989201240709 0  2.001443593398666 19.99989083958626 0  3.00220976235912 19.99989074019745 0  4.002236206830633 19.99986924020813 0  5.002210452591739 19.9998480327619 0  6.00160834901292 19.99988749366442 0  7.001049175982395 19.99992574777233 0  8.000517772818643 19.99996310963565 0  8.999999999995774 20.00000000000344 0  -9 22 0  -8.000497872674867 21.99999186848014 0  -7.001009047145849 21.99998429243324 0  -6.001547230868495 21.99997788128161 0  -5.002126940929605 21.9999733532123 0  -4.002152222904684 21.99988513464473 0  -3.002126920736485 21.99979675602266 0  -2.001385591514895 21.99979805119822 0  -1.000681621673745 21.99979732245296 0  3.929069492213926e-06 21.99979475217784 0  1.000689449482571 21.9997903221978 0  2.001393318228259 21.99978381785938 0  3.002134445543256 21.99977482483293 0  4.002159520713358 21.99986784125689 0  5.002134151662862 21.9999610580161 0  6.00155280132982 21.99996899780911 0  7.00101283271052 21.99997853025531 0  8.000499785778519 21.99998903533751 0  9 22 0  -9 24 0  -8.000429079899426 24.00001556993665 0  -7.000869551580627 24.00003238795977 0  -6.001333108747525 24.00005175441832 0  -5.001832037665746 24.00007507491753 0  -4.001853653022726 23.999882704998 0  -3.001832120994759 23.99969022135374 0  -2.001194908292294 23.99969903755697 0  -1.00058954060973 23.99970298135916 0  2.254883195382614e-08 23.99970227017071 0  1.000589413996166 23.99969691829219 0  2.001194256999023 23.99968673814103 0  3.001830563586454 23.99967133935863 0  4.001851347070307 23.99986788500054 0  5.00182938660703 24.00006458448781 0  6.001331522992363 24.0000441293655 0  7.000868681560809 24.00002742067769 0  8.000428699433712 24.00001312122039 0  9 24 0  -9 26 0  -8.000314651243787 26.0000342798697 0  -7.000637584097634 26.00007028993926 0  -6.000977280727039 26.00010981063913 0  -5.001342613412421 26.0001547235531 0  -4.001358429013093 25.99987981903639 0  -3.001342935595789 25.99960484591935 0  -2.000877070360398 25.99961949120478 0  -1.000434343645096 25.99962723830656 0  -3.187587614071857e-06 25.99962832869802 0  1.000427694436051 25.9996228045615 0  2.00086958922283 25.99961050884631 0  3.001334034997423 25.99959108560087 0  4.001348412024464 25.99986905657088 0  5.001332070283429 26.00014713374681 0  6.000969954268126 26.00010427497651 0  7.000632971124171 26.00006667447276 0  8.000312424789998 26.00003249469102 0  9 26 0  -9 28 0  -8.000167019551666 28.00004607012773 0  -7.000338420442604 28.00009414989732 0  -6.000518687710755 28.00014629786268 0  -5.000712499660307 28.00020467052784 0  -4.000721119018657 27.99987674721423 0  -3.000713161256927 27.99954880560602 0  -2.000466898287326 27.99956751528272 0  -1.000232963768524 27.9995780993601 0  -5.291801947952688e-06 27.9995808221716 0  1.000222043108666 27.99957575293692 0  2.000454956381089 27.99956276509151 0  3.000699484022515 27.99954153665544 0  4.000706106573363 27.99987107943848 0  5.000696856868255 28.00020069058802 0  6.000507646509717 28.00014338909994 0  7.000331383322137 28.00009224717839 0  8.000163596854703 28.00
[...]
<PointData  Vectors="f_44-2"> 
<DataArray  type="Float64"  Name="f_44-2"  NumberOfComponents="3" format="ascii">0.0000000000000000e+00 0.0000000000000000e+00 0.0000000000000000e+00  0.0000000000000000e+00 0.0000000000000000e+00 0.0000000000000000e+00  0.0000000000000000e+00 0.0000000000000000e+00 0.0000000000000000e+00  0.0000000000000000e+00 0.0000000000000000e+00 0.0000000000000000e+00  0.0000000000000000e+00 0.0000000000000000e+00 0.0000000000000000e+00  0.0000000000000000e+00 0.0000000000000000e+00 0.0000000000000000e+00  0.0000000000000000e+00 0.0000000000000000e+00 0.0000000000000000e+00  0.0000000000000000e+00 0.0000000000000000e+00 0.0000000000000000e+00  0.0000000000000000e+00 0.0000000000000000e+00 0.0000000000000000e+00  0.0000000000000000e+00 0.0000000000000000e+00 0.0000000000000000e+00  0.0000000000000000e+00 0.0000000000000000e+00 0.0000000000000000e+00  0.0000000000000000e+00 0.0000000000000000e+00 0.0000000000000000e+00  0.0000000000000000e+00 0.0000000000000000e+00 0.0000000000000000e+00  0.0000000000000000e+00 0.0000000000000000e+00 0.0000000000000000e+00  0.0000000000000000e+00 0.0000000000000000e+00 0.0000000000000000e+00  0.0000000000000000e+00 0.0000000000000000e+00 0.0000000000000000e+00  0.0000000000000000e+00 0.0000000000000000e+00 0.0000000000000000e+00  0.0000000000000000e+00 0.0000000000000000e+00 0.0000000000000000e+00  0.0000000000000000e+00 0.0000000000000000e+00 0.0000000000000000e+00  0.0000000000000000e+00 0.0000000000000000e+00 0.0000000000000000e+00  -3.7044364952259358e-05 -6.0466716752332426e-05 0.0000000000000000e+00  -7.7130461111036210e-05 -1.1274233534787157e-04 0.0000000000000000e+00  -1.2861548618524238e-04 -1.5008229021527025e-04 0.0000000000000000e+00  -2.1161545069994672e-04 -1.6922248406256630e-04 0.0000000000000000e+00  -1.1742781852300746e-04 -1.2824830425340084e-04 0.0000000000000000e+00  -2.2571901599332473e-05 -8.5568082340458051e-05 0.0000000000000000e+00  2.1033301797227583e-05 -4.3814018619258863e-05 0.0000000000000000e+00  2.2832214414015420e-05 -1.0626549879264733e-05 0.0000000000000000e+00  -1.6104044201411494e-06 4.1542738138118395e-06 0.0000000000000000e+00  -2.8104010436100688e-05 -5.5907617845091161e-06 0.0000000000000000e+00  -3.3164367114503927e-05 -3.7265463634144053e-05 0.0000000000000000e+00  -1.3246172340131674e-06 -7.5499625447334308e-05 0.0000000000000000e+00  7.1577874272654769e-05 -1.1482379088404300e-04 0.0000000000000000e+00  1.7845363526331338e-04 -1.2648353817899848e-04 0.0000000000000000e+00  1.0644582242013479e-04 -1.2526159781026285e-04 0.0000000000000000e+00  6.3379918724800247e-05 -9.8238479041717634e-05 0.0000000000000000e+00  3.0450718985770424e-05 -5.3618703429798772e-05 0.0000000000000000e+00  0.0000000000000000e+00 0.0000000000000000e+00 0.0000000000000000e+00  0.0000000000000000e+00 0.0000000000000000e+00 0.0000000000000000e+00  -6.1921243268194386e-05 -1.5369558598305109e-04 0.0000000000000000e+00  -1.0866527996008400e-04 -2.8522565255030422e-04 0.0000000000000000e+00  -1.3117096172624853e-04 -3.7296274205251672e-04 0.0000000000000000e+00  -1.3094197651143289e-04 -3.9649399306284603e-04 0.0000000000000000e+00  1.0341204441651745e-05 -3.7458389340328191e-04 0.0000000000000000e+00  1.0223007849058900e-04 -2.4815429704237474e-04 0.0000000000000000e+00  1.2007413671943776e-04 -8.3787880401801784e-05 0.0000000000000000e+00  7.3684062085651027e-05 4.9038178170680304e-05 0.0000000000000000e+00  -7.3782351862326379e-06 1.0298650774385426e-04 0.0000000000000000e+00  -9.0046955783216025e-05 6.2080492395383922e-05 0.0000000000000000e+00  -1.4206159287861607e-04 -4.8954100778301739e-05 0.0000000000000000e+00  -1.3110270498994784e-04 -1.9866981867107581e-04 0.0000000000000000e+00  -4.6943116763022192e-05 -3.4800448189883839e-04 0.0000000000000000e+00  8.8211784443041624e-05 -3.9324756491308424e-04 0.0000000000000000e+00  9.7123562725841115e-05 -3.5372655676479909e-04 0.0000000000000000e+00  8.6212495074079368e-05 -2.6686131707187789e-04 0.0000000000000000e+00  5.0986646785710306e-05 -1.4323074790557040e-04 0.0000000000000000e+00  0.0000000000000000e+00 0.0000000000000000e+00 0.0000000000000000e+00  0.0000000000000000e+00 0.0000000000000000e+00 0.0000000000000000e+00  -1.4750414834278366e-04 -3.3557574580750425e-04 0.0000000000000000e+00  -2.3715334882626221e-04 -6.3287095667344511e-04 0.0000000000000000e+00  -2.2466532967810914e-04 -8.5265710854261927e-04 0.0000000000000000e+00  -9.7651811305998353e-05 -9.5764864802781323e-04 0.0000000000000000e+00  1.8529445946275345e-04 -7.6693886625873553e-04 0.0000000000000000e+00  3.0978750614317160e-04 -3.7107177320407645e-04 0.0000000000000000e+00  2.4906246530200773e-04 4.3553178402311554e-05 0.0000000000000000e+00  1.1056155661931644e-04 2.7340634217864237e-04 0.0000000000000000e+00  -2.9002769418492103e-05 3.1939242242920234e-04 0.0000000000000000e+00  -1.5511035562144085e-04 2.4622545466420682e-04 0.0000000000000000e+00  -2.5333417691561581e-04 4.2739543050762418e-05 0.0000000000000000e+00  -2.9514101212056346e-04 -3.0175766441508165e-04 0.0000000000000000e+00  -2.3477800411113384e-04 -6.5821661150837648e-04 0.0000000000000000e+00  3.3664656277582247e-06 -8.3326373462634055e-04 0.0000000000000000e+00  1.6709268459267007e-04 -7.7155949920750899e-04 0.0000000000000000e+00  2.0630144693854275e-04 -5.8253519512556395e-04 0.0000000000000000e+00  1.3456167759970169e-04 -3.1123372148064617e-04 0.0000000000000000e+00  0.0000000000000000e+00 0.0000000000000000e+00 0.0000000000000000e+00  0.0000000000000000e+00 0.0000000000000000e+00 0.0000000000000000e+00  -4.6509398912989450e-04 -6.7052869915189414e-04 0.0000000000000000e+00  -7.7417180620033613e-04 -1.2904995683427737e-03 0.0000000000000000e+00  -7.7625010688751146e-04 -1.7914779530186235e-03 0.0000000000000000e+00  -3.4466201057811448e-04 -2.0612089150346246e-03 0.0000000000000000e+00  2.1398516662171377e-04 -1.1822852153661105e-03 0.0000000000000000e+00  9.9947044189030700e-05 -1.4980188408187612e-04 0.0000000000000000e+00  -1.2128860973402127e-04 3.5070372683172676e-04 0.0000000000000000e+00  -1.4825587129069023e-04 4.0366788390220801e-04 0.0000000000000000e+00  -3.0097955152511422e-05 4.1866470080159098e-04 0.0000000000000000e+00  5.6514593240393863e-05 4.7019898185239264e-04 0.0000000000000000e+00  1.2058323891073743e-05 2.6400797720434204e-04 0.0000000000000000e+00  -2.3855247303342648e-04 -8.4826061939713142e-05 0.0000000000000000e+00  -3.3075979824353634e-04 -9.5991333147384648e-04 0.0000000000000000e+00  2.1044998218042307e-04 -1.9490329884990589e-03 0.0000000000000000e+00  7.3509553238222712e-04 -1.6986011284098154e-03 0.0000000000000000e+00  7.7014222832837663e-04 -1.2272630930308796e-03 0.0000000000000000e+00  4.6938810076317509e-04 -6.3892437272987802e-04 0.0000000000000000e+00  0.0000000000000000e+00 0.0000000000000000e+00 0.0000000000000000e+00  0.0000000000000000e+00 0.0000000000000000e+00 0.0000000000000000e+00  -1.4065005705355563e-03 -1.2075129625122925e-03 0.0000000000000000e+00  -2.5368887604746006e-03 -2.4237888667813802e-03 0.0000000000000000e+00  -3.0622491479668219e-03 -3.6547786840601354e-03 0.0000000000000000e+00  -2.5262558119184581e-03 -4.8998608857951792e-03 0.0000000000000000e+00  -1.6304224543988127e-03 -2.0391071615233881e-03 0.0000000000000000e+00  -1.7968791788758450e-03 4.1822617013152622e-04 0.0000000000000000e+00  -1.4528080383523481e-03 -1.8828136588245265e-05 0.0000000000000000e+00  -6.7647103692301455e-04 -1.5899413972756329e-04 0.0000000000000000e+00  -1.0957398202146372e-04 -1.9323566718440954e-04 0.0000000000000000e+00  4.5162839612433850e-04 -1.8948170731301138e-04 0.0000000000000000e+00  1.2021428733558757e-03 -2.0068792652642854e-04 0.0000000000000000e+00  1.8541972985924918e-03 6.8730085608080017e-04 0.0000000000000000e+00  1.7572746773689637e-03 -1.6137642870578514e-03 0.0000000000000000e+00  2.7673564952360495e-03 -4.6560889619913400e-03 0.0000000000000000e+00  3.2609730035206377e-03 -3.5088661444154516e-03 0.0000000000000000e+00  2.6768588744806756e-03 -2.3397694905331183e-03 0.0000000000000000e+00  1.4785360476364195e-03 -1.1688154251445612e-03 0.0000000000000000e+00  0.0000000000000000e+00 0.0000000000000000e+00 0.0000000000000000e+00  0.0000000000000000e+00 0.0000000000000000e+00 0.0000000000000000e+00  -3.4512090283667167e-03 -1.7090190128127209e-03 0.0000000000000000e+00  -6.7178454815982431e-03 -3.4975036490082967e-03 0.0000000000000000e+00  -9.5910420027558035e-03 -5.4604584980603096e-03 0.0000000000000000e+00  -1.1811784142371821e-02 -7.7304073764584832e-03 0.0000000000000000e+00  -1.1341768947951957e-02 -2.4732348585942429e-03 0.0000000000000000e+00  -1.1770769638670568e-02 2.7327051649200522e-03 0.0000000000000000e+00  -8.1331537203293038e-03 2.1000751069584368e-03 0.0000000000000000e+00  -4.0564367067425578e-03 1.7535639144147797e-03 0.0000000000000000e+00  1.8928207261177999e-04 1.6798633015338326e-03 0.0000000000000000e+00  4.4802759935639331e-03 1.8896275948315025e-03 0.0000000000000000e+00  8.7116089967926615e-03 2.4446821765777885e-03 0.0000000000000000e+00  1.2682110583398696e-02 3.4998249177091707e-03 0.0000000000000000e+00  1.2232415076278889e-02 -2.0634341158921789e-03 0.0000000000000000e+00  1.2531032245201088e-02 -7.6726302049121686e-03 0.0000000000000000e+00  1.0095226485356993e-02 -5.4057074439573102e-03 0.0000000000000000e+00  7.0391347968915708e-03 -3.4591403834334190e-03 0.0000000000000000e+00  3.6077557157549434e-03 -1.6898015491356136e-03 0.0000000000000000e+00  0.0000000000000000e+00 0.0000000000000000e+00 0.0000000000000000e+00  0.0000000000000000e+00 0.0000000000000000e+00 0.0000000000000000e+00  -6.2318390280202687e-03 -1.8921807909637563e-03 0.0000000000000000e+00  -1.2468773420161549e-02 -3.8725043695001021e-03 0.0000000000000000e+00  -1.8723176360146931e-02 -6.0369463444925305e-03 0.0000000000000000e+00  -2.5027322686562478e-02 -8.4968776265830718e-03 0.0000000000000000e+00  -2.5081330838181044e-02 -2.2980299300982099e-03 0.0000000000000000e+00  -2.5133876578861666e-02 3.9781165496455655e-03 0.0000000000000000e+00  -1.6574353809601497e-02 3.0753893143992367e-03 0.0000000000000000e+00  -8.1143889161682439e-03 2.5756607279970563e-03 0.0000000000000000e+00  3.0753512938104315e-04 2.4198158829318930e-03 0.0000000000000000e+00  8.7509413629759739e-03 2.5884462262162852e-03 0.0000000000000000e+00  1.7270856456464537e-02 3.0909526958122430e-03 0.0000000000000000e+00  2.5908248423164370e-02 3.9546796881677043e-03 0.0000000000000000e+00  2.5967870969390981e-02 -2.2630223933205931e-03 0.0000000000000000e+00  2.6012864414999427e-02 -8.4428534222883156e-03 0.0000000000000000e+00  1.9405029039027664e-02 -6.0192965043418664e-03 0.0000000000000000e+00  1.2899273216885483e-02 -3.8685059438450585e-03 0.0000000000000000e+00  6.4404414082490499e-03 -1.8920410544997453e-03 0.0000000000000000e+00  0.0000000000000000e+00 0.0000000000000000e+00 0.0000000000000000e+00  0.0000000000000000e+00 0.0000000000000000e+00 0.0000000000000000e+00  -8.9888550925962506e-03 -1.7224513306329638e-03 0.0000000000000000e+00  -1.8144508652431265e-02 -3.5103550411324145e-03 0.0000000000000000e+00  -2.7647782475353395e-02 -5.4304613498650147e-03 0.0000000000000000e+00  -3.7709214340749878e-02 -7.5510244473716258e-03 0.0000000000000000e+00  -3.8059293887878605e-02 -2.1995189408926799e-03 0.0000000000000000e+00  -3.7733123362730776e-02 3.1243246443605687e-03 0.0000000000000000e+00  -2.4625631111341296e-02 2.4412854753818273e-03 0.0000000000000000e+00  -1.2023849453855798e-02 2.0242941700605917e-03 0.0000000000000000e+00  3.3994115084722671e-04 1.8637339247300014e-03 0.0000000000000000e+00  1.2719351747032091e-02 1.9535926147278581e-03 0.0000000000000000e+00  2.5368235413906128e-02 2.2941677672668544e-03 0.0000000000000000e+00  3.8556531039550340e-02 2.8908126907727879e-03 0.0000000000000000e+00  3.8928332004299411e-02 -2.4090840745288368e-03 0.0000000000000000e+00  3.8603738382650070e-02 -7.7134373967414228e-03 0.0000000000000000e+00  2.8297077023916938e-02 -5.5405897861559843e-03 0.0000000000000000e+00  1.8566003014319519e-02 -3.5797064602869459e-03 0.0000000000000000e+00  9.1960905002871508e-03 -1.7561319804763192e-03 0.0000000000000000e+00  0.0000000000000000e+00 0.0000000000000000e+00 0.0000000000000000e+00  0.0000000000000000e+00 0.0000000000000000e+00 0.0000000000000000e+00  -1.1075453133395240e-02 -1.2908298601331542e-03 0.0000000000000000e+00  -2.2423286009884844e-02 -2.6190627392305645e-03 0.0000000000000000e+00  -3.4329963524469508e-02 -4.0216142675923517e-03 0.0000000000000000e+00  -4.7110248705620916e-02 -5.5343668048702518e-03 0.0000000000000000e+00  -4.7650259466561075e-02 -2.1650737716744938e-03 0.0000000000000000e+00  -4.7134486949643638e-02 1.1995812532228994e-03 0.0000000000000000e+00  -3.0664255037541752e-02 7.4537920840268476e-04 0.0000000000000000e+00  -1.4986339236500936e-02 4.4938646441848080e-04 0.0000000000000000e+00  3.0962313460784118e-04 3.0813178006754854e-04 0.0000000000000000e+00  1.5614296735267374e-02 3.1797799323420077e-04 0.0000000000000000e+00  3.1317804876642742e-02 4.7511649914170809e-04 0.0000000000000000e+00  4.7828750319142452e-02 7.7488883629525619e-04 0.0000000000000000e+00  4.8377245509869493e-02 -2.5202634521603925e-03 0.0000000000000000e+00  4.7854538084132307e-02 -5.8063914422152932e-03 0.0000000000000000e+00  3.4876018884041550e-02 -4.2132464982733890e-03 0.0000000000000000e+00  2.2781346424880580e-02 -2.7411926206410983e-03 0.0000000000000000e+00  1.1252606565818876e-02 -1.3502807245226209e-03 0.0000000000000000e+00  0.0000000000000000e+00 0.0000000000000000e+00 0.0000000000000000e+00  0.0000000000000000e+00 0.0000000000000000e+00 0.0000000000000000e+00  -1.2069376951239446e-02 -7.0965208747902182e-04 0.0000000000000000e+00  -2.4460453693003009e-02 -1.4304198280182207e-03 0.0000000000000000e+00  -3.7507361635325843e-02 -2.1724706884012953e-03 0.0000000000000000e+00  -5.1569187239378589e-02 -2.9440701027210353e-03 0.0000000000000000e+00  -5.2192523062951988e-02 -2.1532283414539646e-03 0.0000000000000000e+00  -5.1580791328153845e-02 -1.3671786380045471e-03 0.0000000000000000e+00  -3.3545595399990628e-02 -1.5818184658478297e-03 0.0000000000000000e+00  -1.6426813031441306e-02 -1.7431554147218390e-03 0.0000000000000000e+00  2.4418209877846231e-04 -1.8502868531936471e-03 0.0000000000000000e+00  1.6918969143394431e-02 -1.9052737737593646e-03 0.0000000000000000e+00  3.4048864110834125e-02 -1.9130558663533579e-03 0.0000000000000000e+00  5.2101812397494951e-02 -1.8817381902441351e-03 0.0000000000000000e+00  5.2725500574426841e-02 -2.5757429787448519e-03 0.0000000000000000e+00  5.2109966365144846e-02 -3.2631903148846509e-03 0.0000000000000000e+00  3.7908552224005493e-02 -2.4013285455665744e-03 0.0000000000000000e+00  2.4725781330097469e-02 -1.5780115357315700e-03 0.0000000000000000e+00  1.2201371449034029e-02 -7.8195980784280354e-04 0.0000000000000000e+00  3.4290589398578343e-10 -5.8695542400247033e-10 0.0000000000000000e+00  0.0000000000000000e+00 0.0000000000000000e+00 0.0000000000000000e+00  -1.1773594489880568e-02 -8.4076312645414955e-05 0.0000000000000000e+00  -2.3868116968526722e-02 -1.5666529973624389e-04 0.0000000000000000e+00  -3.6614754855843826e-02 -2.0513162182144809e-04 0.0000000000000000e+00  -5.0365408004262494e-02 -2.1452784768576010e-04 0.0000000000000000e+00  -5.0979894827076648e-02 -2.1694856432952336e-03 0.0000000000000000e+00  -5.0370881984752688e-02 -4.1293600426324569e-03 0.0000000000000000e+00  -3.2773333930276330e-02 -4.1217203334317715e-03 0.0000000000000000e+00  -1.6081893044926087e-02 -4.1519652676516730e-03 0.0000000000000000e+00  1.6352954774024529e-04 -4.2167313421263624e-03 0.0000000000000000e+00  1.6408805741078315e-02 -4.3168384782381981e-03 0.0000000000000000e+00  3.3099601786866835e-02 -4.4572198893822485e-03 0.0000000000000000e+00  5.0695403585951967e-02 -4.6470112868980951e-03 0.0000000000000000e+00  5.1300387423785447e-02 -2.5923587530831981e-03 0.0000000000000000e+00  5.0683969907624270e-02 -5.3341005211856327e-04 0.0000000000000000e+00  3.6856274962459717e-02 -4.3527273467178972e-04 0.0000000000000000e+00  2.4030242222491567e-02 -3.0583359395462624e-04 0.0000000000000000e+00  1.1854970289631893e-02 -1.5738779934615417e-04 0.0000000000000000e+00  0.0000000000000000e+00 0.0000000000000000e+00 0.0000000000000000e+00  0.0000000000000000e+00 0.0000000000000000e+00 0.0000000000000000e+00  -1.0191130115496267e-02 4.9554700414221060e-04 0.0000000000000000e+00  -2.0661027675693125e-02 1.0205883689128593e-03 0.0000000000000000e+00  -3.1695624550007448e-02 1.6058934158163321e-03 0.0000000000000000e+00  -4.3598011646061460e-02 2.2846728375112862e-03 0.0000000000000000e+00  -4.4129260843996827e-02 -2.2102947867625638e-03 0.0000000000000000e+00  -4.3601943166476392e-02 -6.7093690112645108e-03 0.0000000000000000e+00  -2.8388313634611594e-02 -6.5105597507069150e-03 0.0000000000000000e+00  -1.3958294845913346e-02 -6.4231416988165405e-03 0.0000000000000000e+00  8.3727372593484677e-05 -6.4422694501383533e-03 0.0000000000000000e+00  1.4122510587741088e-02 -6.5678005000109523e-03 0.0000000000000000e+00  2.8542620842237767e-02 -6.8043110967705121e-03 0.0000000000000000e+00  4.3739216883258207e-02 -7.1611406416072377e-03 0.0000000000000000e+00  4.4249483420077104e-02 -2.5778909332976477e-03 0.0000000000000000e+00  4.3709177579161103e-02 2.0083901832823239e-03 0.0000000000000000e+00  3.1787194640458948e-02 1.4055098453590721e-03 0.0000000000000000e+00  2.0725623559465792e-02 8.9026526170623167e-04 0.0000000000000000e+00  1.0224624998334573e-02 4.3135778910128269e-04 0.0000000000000000e+00  0.0000000000000000e+00 0.0000000000000000e+00 0.0000000000000000e+00  0.0000000000000000e+00 0.0000000000000000e+00 0.0000000000000000e+00  -7.4915586103111538e-03 9.5725125183085446e-04 0.0000000000000000e+00  -1.5187262222342167e-02 1.9569879789538328e-03 0.0000000000000000e+00  -2.3296789423128923e-02 3.0430108281082717e-03 0.0000000000000000e+00  -3.2040544740698902e-02 4.2613724229328331e-03 0.0000000000000000e+00  -3.2431270950274031e-02 -2.2708556177855423e-03 0.0000000000000000e+00  -3.2046560907881542e-02 -8.8060952741160527e-03 0.0000000000000000e+00  -2.0879604059951550e-02 -8.4547682407795227e-03 0.0000000000000000e+00  -1.0287799083007703e-02 -8.2691979980133532e-03 0.0000000000000000e+00  1.7356381214255426e-05 -8.2432737172946670e-03 0.0000000000000000e+00  1.0316990459396562e-02 -8.3759564936277450e-03 0.0000000000000000e+00  2.0892049018613228e-02 -8.6712933349214032e-03 0.0000000000000000e+00  3.2030704950896292e-02 -9.1384303059870529e-03 0.0000000000000000e+00  3.2388898360737176e-02 -2.5405297994790270e-03 0.0000000000000000e+00  3.1983893473029830e-02 4.0591881024914468e-03 0.0000000000000000e+00  2.3266361572060874e-02 2.8957606626331270e-03 0.0000000000000000e+00  1.5172591633252014e-02 1.8610470427501003e-03 0.0000000000000000e+00  7.4858783589270934e-03 9.0994456760472666e-04 0.0000000000000000e+00  0.0000000000000000e+00 0.0000000000000000e+00 0.0000000000000000e+00  0.0000000000000000e+00 0.0000000000000000e+00 0.0000000000000000e+00  -3.9715167604378347e-03 1.2490800994863201e-03 0.0000000000000000e+00  -8.0510892993038551e-03 2.5482790595021693e-03 0.0000000000000000e+00  -1.2349793365517335e-02 3.9490558090941414e-03 0.0000000000000000e+00  -1.6984026195243786e-02 5.5055709852966095e-03 0.0000000000000000e+00  -1.7195192105078239e-02 -2.3445466027028311e-03 0.0000000000000000e+00  -1.6994368192965254e-02 -1.0196177854300784e-02 0.0000000000000000e+00  -1.1081301674420584e-02 -9.7370486699780694e-03 0.0000000000000000e+00  -5.4760403187266386e-03 -9.4777621774074176e-03 0.0000000000000000e+00  -2.6286729624532001e-05 -9.4108880799339475e-03 0.0000000000000000e+00  5.4165091226016380e-03 -9.5345865943788112e-03 0.0000000000000000e+00  1.1000684040389570e-02 -9.8522732925797486e-03 0.0000000000000000e+00  1.6878131952609017e-02 -1.0372646661000717e-02 0.0000000000000000e+00  1.7046701731080773e-02 -2.4873813973360186e-03 0.0000000000000000e+00