<?xml version="1.0"?>
<VTKFile type="UnstructuredGrid"  version="0.1"  >
<UnstructuredGrid>
<Piece  NumberOfPoints="589" NumberOfCells="1080">
<Points>
<DataArray  type="Float64"  NumberOfComponents="3"  format="ascii">-9 0 0  -8 0 0  -7 0 0  -6 0 0  -5 0 0  -4 0 0  -3 0 0  -2 0 0  -1 0 0  0 0 0  1 0 0  2 0 0  3 0 0  4 0 0  5 0 0  6 0 0  7 0 0  8 0 0  9 0 0  -9 2 0  -8.000001332764457 1.999998475470168 0  -7.000002829193019 1.999997076374861 0  -6.000004785990773 1.999995896997693 0  -5.000007808134908 1.999994954114888 0  -4.000005325901095 1.999996398666841 0  -3.000002623808783 1.999997438681783 0  -2.00000108244787 1.999998270478759 0  -1.000000361710933 1.999998916801546 0  -1.490069726497899e-07 1.999999197452957 0  1.000000020807833 1.999999016651938 0  2.000000593112223 1.999998415295622 0  3.000001882988391 1.999997642317822 0  4.000004015761755 1.999996741025579 0  5.000006965783334 1.99999618984196 0  6.000004233868916 1.99999657940094 0  7.000002490890203 1.999997454151694 0  8.000001171468352 1.99999864722469 0  9 2 0  -9 4 0  -8.000002010867437 3.999996449213986 0  -7.000003816906004 3.99999327388687 0  -6.000005310588089 3.99999084802381 0  -5.000006539287037 3.999989543127921 0  -4.000003300343026 3.99999005044514 0  -3.000000890493688 3.999992465014336 0  -1.999999742169348 3.999995598279435 0  -0.9999996904308299 3.999998077681807 0  -2.62074871077428e-07 3.999999086066377 0  0.9999991314682449 3.99999835248664 0  1.999999073906113 3.999996293912819 0  3.000000138400156 3.99999347255854 0  4.000002463887618 3.999990621894323 0  5.000005531372064 3.99998956205354 0  6.000004511980629 3.999991218042394 0  7.00000328754505 3.999993635026549 0  8.000001751115622 3.99999665565243 0  9 4 0  -9 6 0  -8.0000035082753 5.999992921166397 0  -7.000006054046877 5.999986473581621 0  -6.000006895126375 5.999981315214303 0  -5.000005805730291 5.99997809644821 0  -4.000000129208216 5.999981450734346 0  -2.999997213194149 5.99998850994746 0  -1.999997456229778 5.99999590949821 0  -0.9999990591644228 6.000000064801102 0  -7.010181998839644e-07 6.000000960082695 0  0.9999979057697582 5.999999627490067 0  1.999997031901006 5.999995957105669 0  2.999997099007827 5.999989820192464 0  3.999998884493218 5.999983471603665 0  5.000003754232488 5.999980397086178 0  6.000005610275469 5.999982812735066 0  7.000005332168501 5.999987401374892 0  8.000003189492821 5.99999336923411 0  9 6 0  -9 8 0  -8.000008855154931 7.999986868301875 0  -7.000015109904623 7.999974516594571 0  -6.000016201561404 7.999964024179284 0  -5.000009828711298 7.999957207934568 0  -3.999999684179414 7.999972487903824 0  -3.000000788988465 7.999990459086068 0  -2.000003801784885 7.999999373913531 0  -1.000003515325397 8.000000630289229 0  -8.068135762017062e-07 8.000001007934458 0  1.000001403358748 8.000001756539712 0  2.000001281330612 7.999998066703691 0  2.999997762298546 7.999991605336007 0  3.999997228504887 7.999976356090684 0  5.000007353908456 7.999959320930906 0  6.000015245063766 7.999965715703205 0  7.000014834937266 7.999975651034538 0  8.000008815019404 7.999987431339464 0  9 8 0  -9 10 0  -8.000024602862778 9.999977696132204 0  -7.000044817138239 9.999955123440817 0  -6.000055365199195 9.999932030104159 0  -5.000048821998328 9.999908200724668 0  -4.000033363338837 9.999956024857031 0  -3.000034535523767 9.999997386620755 0  -2.000027078948725 9.999991160873156 0  -1.000012907428494 9.999989164771602 0  -2.205922402379525e-06 9.999988690575588 0  1.000008405415106 9.999988661266428 0  2.000022125133384 9.999988183978468 0  3.000034961374117 10.00000181829329 0  4.000034798726245 9.999962954478255 0  5.000051941854782 9.999912262787316 0  6.000058083384179 9.999934457695479 0  7.000046775862478 9.99995652152538 0  8.000025620267534 9.999978340500782 0  9 10 0  -9 12 0  -8.000057901439025 11.99996960056725 0  -7.000113183613013 11.99993781503713 0  -6.000162883554715 11.99990298392488 0  -5.00020335453267 11.9998627904717 0  -4.000195994503237 11.99994751223795 0  -3.000202003323411 12.00003140321886 0  -2.000138270498214 12.00002116570504 0  -1.000068876740187 12.00001560484768 0  2.61518116767931e-06 12.00001440815422 0  1.000074877538249 12.00001772462576 0  2.000146896938667 12.00002659508639 0  3.000216273653083 12.00004366160368 0  4.000210271582029 11.99995385895929 0  5.000214755067255 11.99986341836021 0  6.000170710409506 11.99990372679815 0  7.00011810525431 11.99993837319322 0  8.00006028178572 11.99996988867762 0  9 12 0  -9 14 0  -8.000101670155098 13.99996705079126 0  -7.000203868061333 13.9999326913646 0  -6.000307299183512 13.99989539058084 0  -5.000413131556439 13.9998533847514 0  -4.000414512301917 13.99994939728197 0  -3.000414022968248 14.0000467199219 0  -2.000272118801966 14.00003246669933 0  -1.000133244565707 14.00002459061883 0  4.355830228087217e-06 14.00002207519946 0  1.000142331029818 14.00002457463434 0  2.0002822578366 14.00003222580731 0  3.000425561138704 14.00004546176327 0  4.00042787334919 13.99994948135689 0  5.000428110720748 13.99985419309116 0  6.000317562822844 13.99989564952115 0  7.000210298144717 13.99993275174367 0  8.000104770435065 13.99996705527604 0  9 14 0  -9 16 0  -8.000143318717209 15.9999701427345 0  -7.00028960467951 15.99993933493045 0  -6.000442085822115 15.99990662011543 0  -5.000604538106792 15.99987105159851 0  -4.000610371450063 15.99994985243539 0  -3.000604186043063 16.00002817322306 0  -2.00039387091665 16.00001826638739 0  -1.000192527497479 16.0000121395311 0  4.597349292095205e-06 16.00000968801053 0  1.000201988528054 16.00001082276882 0  2.000404135033198 16.00001552245012 0  3.000615824547813 16.00002380960326 0  4.000622713541524 15.99994623127588 0  5.000617250345909 15.99986859041848 0  6.000451255423302 15.99990499226473 0  7.000295526829041 15.99993832734963 0  8.000146220170073 15.99996965831397 0  9 16 0  -9 18 0  -8.000173089267857 17.99997703694899 0  -7.000350544876028 17.99995360725837 0  -6.000536961251957 17.99992926560295 0  -5.000737392674908 17.99990361506385 0  -4.000745759351563 17.99994925281441 0  -3.000737220630027 17.99999482974167 0  -2.000479764944489 17.99998895153649 0  -1.000234949727375 17.99998499262696 0  3.772848082343408e-06 17.99998296119094 0  1.000242636702966 17.99998281653968 0  2.000487866693222 17.99998447421146 0  3.000745979291984 17.99998779204138 0  4.000754973896871 17.99994371891988 0  5.000746821521963 17.99989980659409 0  6.000543853455273 17.99992660377374 0  7.000355049364026 17.99995192049853 0  8.000175313410443 17.99997621879223 0  9 18 0  -9 20 0  -8.000185386112072 19.99998579742886 0  -7.000375625603215 19.99997152739853 0  -6.000575749662838 19.99995714669017 0  -5.000791144494293 19.99994266163151 0  -4.000800336249292 19.99994840137672 0  -3.000790954794063 19.99995409285048 0  -2.000515127972599 19.99995196278375 0  -1.000253016330418 19.99995013920801 0  2.382578741125232e-06 19.99994869077009 0  1.000257833679366 19.99994760438322 0  2.000520097046562 19.99994678829619 0  3.000796161465217 19.99994606718397 0  4.000805665491755 19.99994220940972 0  5.000796557372404 19.99993846489892 0  6.000579766937107 19.99995413719905 0  7.000378281720117 19.99996958734592 0  8.000186707121841 19.99998484729898 0  8.999999999998098 20 0  -9 22 0  -8.000178262090134 21.99999482741379 0  -7.000361152437233 21.99998988993553 0  -6.00055342893532 21.9999854447883 0  -5.000760106990467 21.99998179370904 0  -4.000768828339475 21.99994730236352 0  -3.000759999561954 21.99991277482687 0  -2.000495660502986 21.99991374856247 0  -1.000244246268051 21.99991378594288 0  7.835411126865758e-07 21.99991297287472 0  1.000245795843759 21.99991131161129 0  2.000497153375599 21.99990872272205 0  3.00076138406115 21.99990504423146 0  4.000770106641189 21.9999413878634 0  5.000761345228003 21.99997780980798 0  6.000554433224462 21.99998255873097 0  7.000361855790178 21.99998801453852 0  8.000178623463642 21.99999390434403 0  9 22 0  -9 24 0  -8.000152617913797 24.00000291679405 0  -7.000309119400038 24.00000628288916 0  -6.000473476585421 24.00001056620146 0  -5.000649836686331 24.00001627180883 0  -4.000657177081624 23.9999460931102 0  -3.000649868427076 23.99987589835332 0  -2.000424522239404 23.99987927799851 0  -1.000209951676488 23.99988083283309 0  -7.447509190095345e-07 23.99988064612314 0  1.000208391775545 23.99987872759215 0  2.000422747317178 23.99987501355586 0  3.000647722041857 23.9998693671263 0  4.000654754807049 23.9999411351029 0  5.000647300698998 24.00001296575564 0  6.000471736772755 24.00000815225651 0  7.000308034907653 24.00000470539414 0  8.000152097888028 24.00000213769416 0  9 24 0  -9 26 0  -8.000111431867065 26.00000920896632 0  -7.000225647904054 26.00001900686822 0  -6.000345487233173 26.00002999817527 0  -5.000473896592307 26.00004281822095 0  -4.000479239897731 25.99994488606338 0  -3.000474113440775 25.99984695311479 0  -2.000310310310196 25.99985210564994 0  -1.000154214824031 25.99985484307663 0  -1.99030331485504e-06 25.99985524380326 0  1.000150126318132 25.99985332264926 0  2.000305894211294 25.9998490308461 0  3.000469139004953 25.99984225656771 0  4.000473876164435 25.99994134209766 0  5.000468372116414 26.0000404748284 0  6.000341568289469 26.00002827905451 0  7.000223140306312 26.00001787951729 0  8.000110209178466 26.00000865099343 0  9 26 0  -9 28 0  -8.000059100478115 28.00001314546005 0  -7.000119666924141 28.00002695720985 0  -6.000183192089144 28.00004211508208 0  -5.000251220230436 28.000059325678 0  -4.000254191877 27.99994377182171 0  -3.000251657422114 27.99982823066205 0  -2.000165293820185 27.99983459077909 0  -1.000083006004072 27.99983819718985 0  -2.802898480913657e-06 27.99983912608181 0  1.000077269719491 27.99983739752365 0  2.000159162389012 27.99983297505344 0  3.000244855104017 27.99982576640587 0  4.000246935331483 27.99994192060315 0  5.00024377807867 28.00005811021509 0  6.000177872227679 28.00004122099595 0  7.000116243205886 28.0000263697209 0  8.000057425096948 28.000012854
[...]
<PointData  Vectors="f_44-2"> 
<DataArray  type="Float64"  Name="f_44-2"  NumberOfComponents="3" format="ascii">0.0000000000000000e+00 0.0000000000000000e+00 0.0000000000000000e+00  0.0000000000000000e+00 0.0000000000000000e+00 0.0000000000000000e+00  0.0000000000000000e+00 0.0000000000000000e+00 0.0000000000000000e+00  0.0000000000000000e+00 0.0000000000000000e+00 0.0000000000000000e+00  0.0000000000000000e+00 0.0000000000000000e+00 0.0000000000000000e+00  0.0000000000000000e+00 0.0000000000000000e+00 0.0000000000000000e+00  0.0000000000000000e+00 0.0000000000000000e+00 0.0000000000000000e+00  0.0000000000000000e+00 0.0000000000000000e+00 0.0000000000000000e+00  0.0000000000000000e+00 0.0000000000000000e+00 0.0000000000000000e+00  0.0000000000000000e+00 0.0000000000000000e+00 0.0000000000000000e+00  0.0000000000000000e+00 0.0000000000000000e+00 0.0000000000000000e+00  0.0000000000000000e+00 0.0000000000000000e+00 0.0000000000000000e+00  0.0000000000000000e+00 0.0000000000000000e+00 0.0000000000000000e+00  0.0000000000000000e+00 0.0000000000000000e+00 0.0000000000000000e+00  0.0000000000000000e+00 0.0000000000000000e+00 0.0000000000000000e+00  0.0000000000000000e+00 0.0000000000000000e+00 0.0000000000000000e+00  0.0000000000000000e+00 0.0000000000000000e+00 0.0000000000000000e+00  0.0000000000000000e+00 0.0000000000000000e+00 0.0000000000000000e+00  0.0000000000000000e+00 0.0000000000000000e+00 0.0000000000000000e+00  0.0000000000000000e+00 0.0000000000000000e+00 0.0000000000000000e+00  -2.9547908284994275e-05 -4.1879220265487182e-05 0.0000000000000000e+00  -6.2046139204325728e-05 -7.8873891459968942e-05 0.0000000000000000e+00  -1.0411285241122476e-04 -1.0704877014130470e-04 0.0000000000000000e+00  -1.7061875967043865e-04 -1.2477793915957234e-04 0.0000000000000000e+00  -1.0433144197496593e-04 -9.2383818223178786e-05 0.0000000000000000e+00  -3.5623530251523985e-05 -6.3170554911276943e-05 0.0000000000000000e+00  -1.1323883217011199e-06 -3.6397990895544441e-05 0.0000000000000000e+00  6.6741677467903809e-06 -1.5260997863360219e-05 0.0000000000000000e+00  -2.2027768012979552e-06 -5.9127101277310506e-06 0.0000000000000000e+00  -1.2421949613257720e-05 -1.2018157362495885e-05 0.0000000000000000e+00  -9.1518404865858324e-06 -3.2015552871408815e-05 0.0000000000000000e+00  1.7584757562271445e-05 -5.6610984419621105e-05 0.0000000000000000e+00  7.0860433146196166e-05 -8.2926871603193074e-05 0.0000000000000000e+00  1.4724196566259985e-04 -9.3447971300608386e-05 0.0000000000000000e+00  8.8577090810402874e-05 -8.9152838509543839e-05 0.0000000000000000e+00  5.2443754645157520e-05 -6.8603110878004214e-05 0.0000000000000000e+00  2.4950387814849682e-05 -3.7089848179966864e-05 0.0000000000000000e+00  0.0000000000000000e+00 0.0000000000000000e+00 0.0000000000000000e+00  0.0000000000000000e+00 0.0000000000000000e+00 0.0000000000000000e+00  -4.7294291338961993e-05 -1.0329594787050440e-04 0.0000000000000000e+00  -8.5818272543438973e-05 -1.9302641623581923e-04 0.0000000000000000e+00  -1.1046867956165434e-04 -2.5588009227843755e-04 0.0000000000000000e+00  -1.2237369057280408e-04 -2.7911384354549381e-04 0.0000000000000000e+00  -2.7650724358916667e-05 -2.6432784142920443e-04 0.0000000000000000e+00  3.6902662809331115e-05 -1.8425990757057348e-04 0.0000000000000000e+00  5.6057082625290496e-05 -8.0242834803296648e-05 0.0000000000000000e+00  3.5804408600437100e-05 3.3024604170028117e-06 0.0000000000000000e+00  -6.0276630953588366e-06 3.7261608663276099e-05 0.0000000000000000e+00  -4.8920287058909045e-05 1.1864772514042371e-05 0.0000000000000000e+00  -7.2768548095874505e-05 -5.7775682781260426e-05 0.0000000000000000e+00  -5.7551236252379637e-05 -1.5211960569329531e-04 0.0000000000000000e+00  2.6532296199981464e-06 -2.4655136213661948e-04 0.0000000000000000e+00  9.2876236020216957e-05 -2.7700859635662524e-04 0.0000000000000000e+00  8.7027556492821271e-05 -2.4332364452594427e-04 0.0000000000000000e+00  7.0327326084579158e-05 -1.8105966468687020e-04 0.0000000000000000e+00  3.9728521694975688e-05 -9.6485314431502098e-05 0.0000000000000000e+00  0.0000000000000000e+00 0.0000000000000000e+00 0.0000000000000000e+00  0.0000000000000000e+00 0.0000000000000000e+00 0.0000000000000000e+00  -1.0012119865331182e-04 -2.1897168617004617e-04 0.0000000000000000e+00  -1.6508477541079712e-04 -4.1468350690382556e-04 0.0000000000000000e+00  -1.6780645016438924e-04 -5.6318879555373829e-04 0.0000000000000000e+00  -1.0053771676796420e-04 -6.4148346171721945e-04 0.0000000000000000e+00  8.1258006072541938e-05 -5.2349876966052244e-04 0.0000000000000000e+00  1.6533064324986602e-04 -2.7772851494115101e-04 0.0000000000000000e+00  1.3581775257325143e-04 -2.0253219470226434e-05 0.0000000000000000e+00  5.8260205853590855e-05 1.2302777185557861e-04 0.0000000000000000e+00  -2.0172290629781911e-05 1.5235535907214275e-04 0.0000000000000000e+00  -9.0162661279521411e-05 1.0668606895837345e-04 0.0000000000000000e+00  -1.4260801165187401e-04 -1.9999516522373056e-05 0.0000000000000000e+00  -1.6064068971299582e-04 -2.3367779853717750e-04 0.0000000000000000e+00  -1.1626142405580534e-04 -4.5473095605263341e-04 0.0000000000000000e+00  3.7573046138380613e-05 -5.6282684419075842e-04 0.0000000000000000e+00  1.2888450977044860e-04 -5.1180833117240535e-04 0.0000000000000000e+00  1.4380462926021566e-04 -3.8275500645407640e-04 0.0000000000000000e+00  9.1024495417655414e-05 -2.0352198184091176e-04 0.0000000000000000e+00  0.0000000000000000e+00 0.0000000000000000e+00 0.0000000000000000e+00  0.0000000000000000e+00 0.0000000000000000e+00 0.0000000000000000e+00  -2.9418928132233748e-04 -4.2767441630038496e-04 0.0000000000000000e+00  -4.9331480525733544e-04 -8.2515349076863820e-04 0.0000000000000000e+00  -5.0510671123009919e-04 -1.1513272175212319e-03 0.0000000000000000e+00  -2.5035630718371615e-04 -1.3383112202937225e-03 0.0000000000000000e+00  9.8289953789317715e-05 -7.9660422295130457e-04 0.0000000000000000e+00  3.6676852284171270e-05 -1.5988262165194002e-04 0.0000000000000000e+00  -9.1576294012279955e-05 1.5092208257373567e-04 0.0000000000000000e+00  -1.0099848539152649e-04 1.8702806721893140e-04 0.0000000000000000e+00  -2.2010188587843957e-05 1.9745948776061587e-04 0.0000000000000000e+00  3.8056766619147154e-05 2.2765028147718976e-04 0.0000000000000000e+00  1.6956610827858568e-05 9.9466131389946137e-05 0.0000000000000000e+00  -1.2917473379674130e-04 -1.1951828879315301e-04 0.0000000000000000e+00  -1.7538412230516228e-04 -6.5898687902602371e-04 0.0000000000000000e+00  1.6507403657232947e-04 -1.2665754528279627e-03 0.0000000000000000e+00  4.7629853030394713e-04 -1.0924149372279126e-03 0.0000000000000000e+00  4.8807314326885354e-04 -7.8515568060746226e-04 0.0000000000000000e+00  2.9528919772088639e-04 -4.0770400842718966e-04 0.0000000000000000e+00  0.0000000000000000e+00 0.0000000000000000e+00 0.0000000000000000e+00  0.0000000000000000e+00 0.0000000000000000e+00 0.0000000000000000e+00  -8.6845359960428543e-04 -7.5711038573344309e-04 0.0000000000000000e+00  -1.5707655061345824e-03 -1.5207710934207256e-03 0.0000000000000000e+00  -1.9085159462582334e-03 -2.2961032621866095e-03 0.0000000000000000e+00  -1.6054049335562251e-03 -3.0849451475354777e-03 0.0000000000000000e+00  -1.0539742963906027e-03 -1.3402956362656589e-03 0.0000000000000000e+00  -1.1395727266878160e-03 1.6149918524649835e-04 0.0000000000000000e+00  -9.1347415462105137e-04 -9.3837263693776737e-05 0.0000000000000000e+00  -4.2872009971043365e-04 -1.7568539547381629e-04 0.0000000000000000e+00  -7.1316013791485403e-05 -1.9553424092067927e-04 0.0000000000000000e+00  2.8263308436805699e-04 -1.9422717104886395e-04 0.0000000000000000e+00  7.5130093977624250e-04 -2.0409012683223035e-04 0.0000000000000000e+00  1.1672696527548602e-03 3.2437205288754169e-04 0.0000000000000000e+00  1.1228269969013522e-03 -1.0820009028776974e-03 0.0000000000000000e+00  1.7412670781597691e-03 -2.9340221959082988e-03 0.0000000000000000e+00  2.0213914392960236e-03 -2.2053223894019677e-03 0.0000000000000000e+00  1.6504997505623501e-03 -1.4682725925627372e-03 0.0000000000000000e+00  9.0952412869468326e-04 -7.3286078320793221e-04 0.0000000000000000e+00  0.0000000000000000e+00 0.0000000000000000e+00 0.0000000000000000e+00  0.0000000000000000e+00 0.0000000000000000e+00 0.0000000000000000e+00  -2.1070199598762431e-03 -1.0602460339072357e-03 0.0000000000000000e+00  -4.1060328526757407e-03 -2.1695375360383643e-03 0.0000000000000000e+00  -5.8747598488627026e-03 -3.3865255734508871e-03 0.0000000000000000e+00  -7.2619035559716464e-03 -4.7930455820898938e-03 0.0000000000000000e+00  -6.9788606202646139e-03 -1.6170418285145485e-03 0.0000000000000000e+00  -7.2283627403916407e-03 1.5281626997811937e-03 0.0000000000000000e+00  -4.9841379039125052e-03 1.1460524646006863e-03 0.0000000000000000e+00  -2.4876580822050225e-03 9.3702035912566085e-04 0.0000000000000000e+00  1.0528476393849167e-04 8.9215345274245032e-04 0.0000000000000000e+00  2.7261534369682743e-03 1.0176756434597135e-03 0.0000000000000000e+00  5.3178858527853081e-03 1.3512924911278381e-03 0.0000000000000000e+00  7.7669204258827909e-03 1.9877473239663219e-03 0.0000000000000000e+00  7.5087864356724338e-03 -1.3711384206087306e-03 0.0000000000000000e+00  7.6869466868406599e-03 -4.7565162113051345e-03 0.0000000000000000e+00  6.1699697710362001e-03 -3.3514177899664631e-03 0.0000000000000000e+00  4.2929698657036171e-03 -2.1447055840089135e-03 0.0000000000000000e+00  2.1977710169567058e-03 -1.0477308052115905e-03 0.0000000000000000e+00  0.0000000000000000e+00 0.0000000000000000e+00 0.0000000000000000e+00  0.0000000000000000e+00 0.0000000000000000e+00 0.0000000000000000e+00  -3.7770786670963201e-03 -1.1670911221621544e-03 0.0000000000000000e+00  -7.5615914756222537e-03 -2.3873306679441687e-03 0.0000000000000000e+00  -1.1365886290183640e-02 -3.7185484231537272e-03 0.0000000000000000e+00  -1.5215777785036827e-02 -5.2277206969217772e-03 0.0000000000000000e+00  -1.5251757515281371e-02 -1.5192535630485556e-03 0.0000000000000000e+00  -1.5269563395009789e-02 2.2365271731833144e-03 0.0000000000000000e+00  -1.0064827275433744e-02 1.6938380521405699e-03 0.0000000000000000e+00  -4.9328986519303376e-03 1.3932447160789035e-03 0.0000000000000000e+00  1.7028760692450260e-04 1.2984477582360791e-03 0.0000000000000000e+00  5.2869679057326200e-03 1.3973990930331878e-03 0.0000000000000000e+00  1.0456698966344491e-02 1.6956134230167955e-03 0.0000000000000000e+00  1.5711243686663573e-02 2.2095125609426077e-03 0.0000000000000000e+00  1.5761691829227896e-02 -1.5017917758009670e-03 0.0000000000000000e+00  1.5785393545039442e-02 -5.1894560575138134e-03 0.0000000000000000e+00  1.1757366183408750e-02 -3.7035508069225924e-03 0.0000000000000000e+00  7.8074880557124152e-03 -2.3819400268770934e-03 0.0000000000000000e+00  3.8958382131639505e-03 -1.1654887385107932e-03 0.0000000000000000e+00  0.0000000000000000e+00 0.0000000000000000e+00 0.0000000000000000e+00  0.0000000000000000e+00 0.0000000000000000e+00 0.0000000000000000e+00  -5.4166812437575632e-03 -1.0612736172634658e-03 0.0000000000000000e+00  -1.0936842254525155e-02 -2.1610646885211792e-03 0.0000000000000000e+00  -1.6672732513380792e-02 -3.3385345840632481e-03 0.0000000000000000e+00  -2.2755426591036815e-02 -4.6334100000921695e-03 0.0000000000000000e+00  -2.2967404957956315e-02 -1.4697740256595258e-03 0.0000000000000000e+00  -2.2760600460294964e-02 1.6766876469889356e-03 0.0000000000000000e+00  -1.4856133915508338e-02 1.2738125389852226e-03 0.0000000000000000e+00  -7.2639893393514976e-03 1.0267413743969239e-03 0.0000000000000000e+00  1.8132587207034782e-04 9.3016011904453483e-04 0.0000000000000000e+00  7.6364079370467028e-03 9.8047382533813501e-04 0.0000000000000000e+00  1.5258023309859613e-02 1.1775967174466537e-03 0.0000000000000000e+00  2.3212985947553614e-02 1.5241612888543907e-03 0.0000000000000000e+00  2.3447295349102996e-02 -1.5978742494661686e-03 0.0000000000000000e+00  2.3250155945493806e-02 -4.7226645888598130e-03 0.0000000000000000e+00  1.7030058990804123e-02 -3.3982443147613471e-03 0.0000000000000000e+00  1.1167816329281773e-02 -2.1983506933977138e-03 0.0000000000000000e+00  5.5299239240002010e-03 -1.0792987898762404e-03 0.0000000000000000e+00  0.0000000000000000e+00 0.0000000000000000e+00 0.0000000000000000e+00  0.0000000000000000e+00 0.0000000000000000e+00 0.0000000000000000e+00  -6.6413701983711474e-03 -8.0137258972672759e-04 0.0000000000000000e+00  -1.3447140753475605e-02 -1.6240186230770714e-03 0.0000000000000000e+00  -2.0590229021299925e-02 -2.4887948488948966e-03 0.0000000000000000e+00  -2.8260789000014590e-02 -3.4155625224134975e-03 0.0000000000000000e+00  -2.8582867375391448e-02 -1.4600795389610110e-03 0.0000000000000000e+00  -2.8268586006200976e-02 4.9258332014097471e-04 0.0000000000000000e+00  -1.8400536125302805e-02 2.3086546945364975e-04 0.0000000000000000e+00  -9.0088507284558327e-03 5.8737602635865381e-05 0.0000000000000000e+00  1.5324172233558946e-04 -2.5252833373080930e-05 0.0000000000000000e+00  9.3206753990123497e-03 -2.3245474272942630e-05 0.0000000000000000e+00  1.8728083417098050e-02 6.2232969047146844e-05 0.0000000000000000e+00  2.8621141772492257e-02 2.2773953074042301e-04 0.0000000000000000e+00  2.8954614692557130e-02 -1.6721139335616529e-03 0.0000000000000000e+00  2.8642334425908182e-02 -3.5665242975150024e-03 0.0000000000000000e+00  2.0868984591339554e-02 -2.5946780682513048e-03 0.0000000000000000e+00  1.3629272119999593e-02 -1.6913001883187592e-03 0.0000000000000000e+00  6.7312944331391457e-03 -8.3406470408224035e-04 0.0000000000000000e+00  0.0000000000000000e+00 0.0000000000000000e+00 0.0000000000000000e+00  0.0000000000000000e+00 0.0000000000000000e+00 0.0000000000000000e+00  -7.2077790469535106e-03 -4.5639585688983812e-04 0.0000000000000000e+00  -1.4606832432074269e-02 -9.1844581332363798e-04 0.0000000000000000e+00  -2.2395748761447964e-02 -1.3911488206301986e-03 0.0000000000000000e+00  -3.0787794391340120e-02 -1.8781660957391153e-03 0.0000000000000000e+00  -3.1155551443029124e-02 -1.4638013918068216e-03 0.0000000000000000e+00  -3.0790211630843112e-02 -1.0520909990110671e-03 0.0000000000000000e+00  -2.0042068490938487e-02 -1.1701428139712850e-03 0.0000000000000000e+00  -9.8365237059619120e-03 -1.2612369710599126e-03 0.0000000000000000e+00  1.0373604827372285e-04 -1.3243432311849344e-03 0.0000000000000000e+00  1.0046130267726340e-02 -1.3605483177580133e-03 0.0000000000000000e+00  2.0257918047960722e-02 -1.3729717730608811e-03 0.0000000000000000e+00  3.1015981577158944e-02 -1.3669444074679788e-03 0.0000000000000000e+00  3.1387851832098357e-02 -1.7125419611273872e-03 0.0000000000000000e+00  3.1024512405568753e-02 -2.0541432366288663e-03 0.0000000000000000e+00  2.2571015429853191e-02 -1.5172125895630299e-03 0.0000000000000000e+00  1.4722520463455579e-02 -9.9967091109847577e-04 0.0000000000000000e+00  7.2652647597156120e-03 -4.9616643150056231e-04 0.0000000000000000e+00  -8.8609677667979486e-11 0.0000000000000000e+00 0.0000000000000000e+00  0.0000000000000000e+00 0.0000000000000000e+00 0.0000000000000000e+00  -7.0084792853218249e-03 -8.8823473760644986e-05 0.0000000000000000e+00  -1.4205774190633973e-02 -1.7027631793053132e-04 0.0000000000000000e+00  -2.1786584065743360e-02 -2.3626212316634707e-04 0.0000000000000000e+00  -2.9957426874731304e-02 -2.7722078604828755e-04 0.0000000000000000e+00  -3.0316705900495906e-02 -1.4827713088333514e-03 0.0000000000000000e+00  -2.9957726788167573e-02 -2.6907650725100422e-03 0.0000000000000000e+00  -1.9515716253017335e-02 -2.6789083307490785e-03 0.0000000000000000e+00  -9.6042647158090539e-03 -2.6930758551664438e-03 0.0000000000000000e+00  4.5687679952956310e-05 -2.7309504390839244e-03 0.0000000000000000e+00  9.6951891335314740e-03 -2.7929006796219812e-03 0.0000000000000000e+00  1.9605151126167723e-02 -2.8819274654686088e-03 0.0000000000000000e+00  3.0044232058912282e-02 -3.0037126974183366e-03 0.0000000000000000e+00  3.0400242001894440e-02 -1.7291174848357137e-03 0.0000000000000000e+00  3.0039957920460443e-02 -4.5172521797894613e-04 0.0000000000000000e+00  2.1850738737140333e-02 -3.6221690716606780e-04 0.0000000000000000e+00  1.4249537923519337e-02 -2.5191766359600128e-04 0.0000000000000000e+00  7.0306452997515919e-03 -1.2894811225180807e-04 0.0000000000000000e+00  0.0000000000000000e+00 0.0000000000000000e+00 0.0000000000000000e+00  0.0000000000000000e+00 0.0000000000000000e+00 0.0000000000000000e+00  -6.0533088883651560e-03 2.4925855526419696e-04 0.0000000000000000e+00  -1.2269361465257858e-02 5.1601282499303411e-04 0.0000000000000000e+00  -1.8815135094928180e-02 8.1849487188413879e-04 0.0000000000000000e+00  -2.5866728607310565e-02 1.1764174779222722e-03 0.0000000000000000e+00  -2.6175067577186087e-02 -1.5133293899003510e-03 0.0000000000000000e+00  -2.5866930788135827e-02 -4.2048561225019147e-03 0.0000000000000000e+00  -1.6869533672248249e-02 -4.0837007384413142e-03 0.0000000000000000e+00  -8.3271240625188338e-03 -4.0302026434246418e-03 0.0000000000000000e+00  -1.0499182468746327e-05 -4.0413717973138844e-03 0.0000000000000000e+00  8.3036388707417481e-03 -4.1170722084226292e-03 0.0000000000000000e+00  1.6838452620204131e-02 -4.2599926827720574e-03 0.0000000000000000e+00  2.5822875951954274e-02 -4.4756671133909503e-03 0.0000000000000000e+00  2.6120455596520983e-02 -1.7257329161352887e-03 0.0000000000000000e+00  2.5807319733120795e-02 1.0263839371188928e-03 0.0000000000000000e+00  1.8776300808416392e-02 7.0958842934628404e-04 0.0000000000000000e+00  1.2246087016822258e-02 4.4513427743573630e-04 0.0000000000000000e+00  6.0424808753481718e-03 2.1433744623371756e-04 0.0000000000000000e+00  0.0000000000000000e+00 0.0000000000000000e+00 0.0000000000000000e+00  0.0000000000000000e+00 0.0000000000000000e+00 0.0000000000000000e+00  -4.4466595335059846e-03 5.1736340172278596e-04 0.0000000000000000e+00  -9.0121249084152456e-03 1.0593896681177070e-03 0.0000000000000000e+00  -1.3818183514418624e-02 1.6514776774266815e-03 0.0000000000000000e+00  -1.8992534335500608e-02 2.3204824479867159e-03 0.0000000000000000e+00  -1.9218135881640411e-02 -1.5517232192228921e-03 0.0000000000000000e+00  -1.8994437605002554e-02 -5.4250571913183184e-03 0.0000000000000000e+00  -1.2405114963082364e-02 -5.2181027048676856e-03 0.0000000000000000e+00  -6.1478874576761031e-03 -5.1088898099163034e-03 0.0000000000000000e+00  -5.6641372056854728e-05 -5.0939003924370917e-03 0.0000000000000000e+00  6.0306323849080960e-03 -5.1726030782765532e-03 0.0000000000000000e+00  1.2275842136527321e-02 -5.3472946125221891e-03 0.0000000000000000e+00  1.8844676936668449e-02 -5.6231122006027701e-03 0.0000000000000000e+00  1.9052386374980589e-02 -1.7066135382907378e-03 0.0000000000000000e+00  1.8819275103576328e-02 2.2113840403511511e-03 0.0000000000000000e+00  1.3696596638385518e-02 1.5720218534251162e-03 0.0000000000000000e+00  8.9349687392801663e-03 1.0075565635139267e-03 0.0000000000000000e+00  4.4092364326560511e-03 4.9178823800075805e-04 0.0000000000000000e+00  0.0000000000000000e+00 0.0000000000000000e+00 0.0000000000000000e+00  0.0000000000000000e+00 0.0000000000000000e+00 0.0000000000000000e+00  -2.3640199117456410e-03 6.8682611019733214e-04 0.0000000000000000e+00  -4.7910930004284053e-03 1.4025223385582539e-03 0.0000000000000000e+00  -7.3458160424380572e-03 2.1766922930621007e-03 0.0000000000000000e+00  -1.0095744998045218e-02 3.0404090956257751e-03 0.0000000000000000e+00  -1.0217537432504805e-02 -1.5940431317127527e-03 0.0000000000000000e+00  -1.0100851369728766e-02 -6.2289052064470442e-03 0.0000000000000000e+00  -6.6146298364161494e-03 -5.9617908770843338e-03 0.0000000000000000e+00  -3.3057521914862070e-03 -5.8108692218445520e-03 0.0000000000000000e+00  -8.6905588475698911e-05 -5.7721644232938945e-03 0.0000000000000000e+00  3.1270701508853346e-03 -5.8446585780230695e-03 0.0000000000000000e+00  6.4211781199501102e-03 -6.0302388220313599e-03 0.0000000000000000e+00  9.8822490940267387e-03 -6.3337023504249027e-03 0.0000000000000000e+00  9.9796792974423971e-03 -1.6757530516874656e-03 0.0000000000000