<?xml version="1.0"?>
<VTKFile type="UnstructuredGrid"  version="0.1"  >
<UnstructuredGrid>
<Piece  NumberOfPoints="589" NumberOfCells="1080">
<Points>
<DataArray  type="Float64"  NumberOfComponents="3"  format="ascii">-9 0 0  -8 0 0  -7 0 0  -6 0 0  -5 0 0  -4 0 0  -3 0 0  -2 0 0  -1 0 0  0 0 0  1 0 0  2 0 0  3 0 0  4 0 0  5 0 0  6 0 0  7 0 0  8 0 0  9 0 0  -9 2 0  -8.000008132750601 1.999987938532424 0  -7.00001707398672 1.999977340677794 0  -6.00002869601436 1.999969392069212 0  -5.000047254846087 1.999964603759669 0  -4.000028255034068 1.999973614163048 0  -3.000008652708233 1.99998203710861 0  -1.999998997260131 1.999989888287827 0  -0.999997187847136 1.999996088848615 0  -2.758574531822149e-07 1.999998807355702 0  0.9999962847475922 1.999996930976757 0  1.999996907014615 1.99999091119802 0  3.000004563600757 1.999983516850382 0  4.000020189609801 1.999975581732971 0  5.000042770757729 1.999972289769046 0  6.000025830505741 1.999973532711373 0  7.000015358831583 1.999979619428945 0  8.000007329842191 1.999988977128655 0  9 2 0  -9 4 0  -8.000013031360753 3.999970023439313 0  -7.000023424838508 3.999944084988765 0  -6.000029644703296 3.999926143276736 0  -5.000032022710201 3.99991998038699 0  -4.000004488888156 3.999924117706523 0  -2.999985906729173 3.999947649941225 0  -1.999980817380641 3.99997828241708 0  -0.9999874378485676 4.000002909686742 0  -4.425616441107268e-07 4.00001284130721 0  0.9999862688239354 4.000005103385845 0  1.999978694703408 3.999984175410563 0  2.9999828342002 3.999955833244998 0  4.000000500145759 3.999927329740244 0  5.000027272421847 3.999917757128794 0  6.000025786479049 3.999927690871087 0  7.000020946686388 3.999946155822393 0  8.000011862737644 3.999971294496525 0  9 4 0  -9 6 0  -8.000028480484618 5.999935959918796 0  -7.000046470079698 5.999878846049675 0  -6.000045960866778 5.999835782744587 0  -5.00002465043616 5.999813610040849 0  -3.999971156318205 5.999848409509272 0  -2.999946673463259 5.999921131433649 0  -1.999955921075459 5.999997359353407 0  -0.999979444396216 6.000039758445451 0  -3.260209355111324e-06 6.000048295103488 0  0.9999753677261827 6.000034551557936 0  1.999959175054548 5.999996545862244 0  2.999953307044779 5.999932355939165 0  3.999966189926438 5.999865797663012 0  5.000011883807821 5.999832852046272 0  6.000039157831655 5.999847727620988 0  7.000043510090077 5.999886001277551 0  8.000027509189884 5.999939348315801 0  9 6 0  -9 8 0  -8.000085881714067 7.999874209972753 0  -7.000143503602615 7.99975742466505 0  -6.000145477912181 7.999661879349414 0  -5.000068324342128 7.999607753791903 0  -3.999965183055623 7.999768355569842 0  -2.999983836669222 7.999957046240167 0  -2.00002217186396 8.000049054967914 0  -1.000025180718221 8.000059638628063 0  -1.927753156157159e-06 8.000062729613878 0  1.000015542523721 8.000071944539197 0  2.000008696528071 8.000033499902958 0  2.9999642157885 7.999967979090997 0  3.999949456030662 7.999805901786195 0  5.000050953116934 7.999623037923014 0  6.000144202206157 7.999674199309701 0  7.000147469952167 7.999765574092856 0  8.000089174887222 7.999878199373086 0  9 8 0  -9 10 0  -8.000256229662947 9.999776515820885 0  -7.000463027604056 9.9995511587494 0  -6.000561411710569 9.999322487487111 0  -5.000469181460524 9.999090091644355 0  -4.00030597817303 9.999607974410234 0  -3.000332080839574 10.00005329561296 0  -2.000265256775052 9.999976913892482 0  -1.000121493187072 9.999952399069148 0  -1.544798735623584e-05 9.999946415484555 0  1.000089768304484 9.999946848251561 0  2.000229703889905 9.999943956511165 0  3.00035319990715 10.00010393047141 0  4.000338241919581 9.999680951143064 0  5.000523821212369 9.999122930904864 0  6.000608973272469 9.999339970846176 0  7.000497555672116 9.999560230758943 0  8.000274277729872 9.999780403527955 0  9 10 0  -9 12 0  -8.000623876376206 11.99968647227835 0  -7.001215508124978 11.99935841775589 0  -6.001738452173535 11.99899846090205 0  -5.002147483039234 11.99858237253389 0  -4.002064445800142 11.99952551975526 0  -3.002139505854925 12.00045920474487 0  -2.001466833054058 12.00034630349515 0  -1.000719685641356 12.00028529488202 0  5.553495556401385e-05 12.00027354550224 0  1.000838277761026 12.00031300565893 0  2.001611220466609 12.00041509866173 0  3.002339772539873 12.00060842066273 0  4.002259579549187 11.99959439566711 0  5.002312824909971 11.99857195777027 0  6.001859046173738 11.99899321544127 0  7.001294593593541 11.99935545295062 0  8.00066308006148 11.99968504740051 0  9 12 0  -9 14 0  -8.001119619284102 13.99965471538998 0  -7.002241327310849 13.99929359663249 0  -6.003368730090677 13.99889941381006 0  -5.004509288367072 13.99845220000167 0  -4.00452148989034 13.99955305352942 0  -3.004527913883918 14.00066785694767 0  -2.002967974016256 14.00050845487647 0  -1.00143089773047 14.00042144707708 0  9.664389650030717e-05 14.0003961075258 0  1.001627292481707 14.00042896420917 0  2.003172771542377 14.00052180424441 0  3.004742368795957 14.00067967534695 0  4.004754731588409 13.99955405213978 0  5.004761452213021 13.99843541300747 0  6.003549668856982 13.99888324299463 0  7.002358618791699 13.99928166737028 0  8.001177364431133 13.99964848873394 0  9 14 0  -9 16 0  -8.001605805086413 15.99968641414469 0  -7.003242387494961 15.99936128396022 0  -6.004943198870456 15.99901286994125 0  -5.00674712582976 15.99862922686054 0  -4.006811678594783 15.99956659287289 0  -3.006750771634534 16.00049895349131 0  -2.004380779294701 16.00038199771226 0  -1.002105333918301 16.00031170668112 0  0.0001253851717938203 16.00028658977818 0  1.002358448941316 16.00030568400085 0  2.004640931879221 16.00036907922498 0  3.007022920983531 16.00047767868988 0  4.007091155359326 15.99952434393031 0  5.007031447685543 15.99857027919403 0  6.005153734809442 15.99897136989845 0  7.003381264439362 15.9993346278601 0  8.001674777671001 15.99967334639465 0  9 16 0  -9 18 0  -8.001967611533129 17.99976432089631 0  -7.00398426607293 17.99952223104642 0  -6.006101558403985 17.99926744324784 0  -5.008376151346916 17.99899394063748 0  -4.00847325991781 17.99956941856062 0  -3.008379681470292 18.00014414038949 0  -2.005419385741825 18.00006967448353 0  -1.002602729014479 18.00002209280679 0  0.0001446839957677864 18.00000104160887 0  1.002893637818953 18.00000599594435 0  2.005714815840903 18.00003629937498 0  3.008682265716956 18.00009102314594 0  4.008781304363135 17.99950225220001 0  5.008686981293839 17.99891521013718 0  6.006332696739939 17.99921113255767 0  7.004137378410556 17.99948593362524 0  8.002043869689972 17.99974653205302 0  9 18 0  -9 20 0  -8.002132074824663 19.99986785037099 0  -7.004321275126324 19.99973399950669 0  -6.006626901884176 19.99959694281644 0  -5.009112603944383 19.99945556012424 0  -4.009223180876112 19.99956920662452 0  -3.009113993436939 19.99968199960852 0  -2.005887932615949 19.99965039508366 0  -1.002825281511088 19.99962695788442 0  0.0001577385092759295 19.99961207064831 0  1.003141877906935 19.99960549101157 0  2.006207852369216 19.99960637378085 0  3.009439348017388 19.99961321777804 0  4.009550764387474 19.99949131408921 0  5.009440832765023 19.99937056981244 0  6.006871548150483 19.99953546487875 0  7.00448363910675 19.99969409137946 0  8.002213035571229 19.99984821915947 0  8.999999999990116 19.9999999999934 0  -9 22 0  -8.002066954320332 21.99997816191135 0  -7.004190274893562 21.99995858534886 0  -6.006428088020658 21.99994374966885 0  -5.008842022045968 21.99993657405824 0  -4.008950147727266 21.99956464508782 0  -3.008842970576735 21.99919174490582 0  -2.00570739438618 21.99919863656348 0  -1.00273145327184 21.99919783230044 0  0.0001663155219073495 21.99919007887313 0  1.003064918658154 21.99917532967794 0  2.006043346521908 21.99915275998152 0  3.009183015846438 21.99912075265212 0  4.009290034035985 21.99948782676442 0  5.009180468470208 21.99985552246523 0  6.006680823146813 21.99988485458655 0  7.00435822841655 21.99992021870344 0  8.002150764520762 21.99995924766347 0  9 22 0  -9 24 0  -8.001775256940654 24.0000794278434 0  -7.003598951044239 24.0001642060937 0  -6.005520875726918 24.0002599066019 0  -5.007593440185158 24.00037255926855 0  -4.007686620580574 23.99955593221389 0  -3.00759522443531 23.99873841124575 0  -2.004892734893554 23.99877748177524 0  -1.002326973368043 23.99879633396661 0  0.0001716642186133097 23.99879589929286 0  1.002670927493431 23.99877626681231 0  2.005238558350206 23.9987366870262 0  3.007944140513577 23.99867556653168 0  4.008033459960845 23.99948975320767 0  5.007937322686302 24.00030425470717 0  6.005777993366581 24.00021008580336 0  7.003769971800978 24.00013166291692 0  8.001860641684111 24.00006335793474 0  9 24 0  -9 26 0  -8.001288543791176 26.00015931473886 0  -7.002612206249006 26.00032615096912 0  -6.004007065421162 26.00050825286506 0  -5.005510917694568 26.00071382677126 0  -4.005579662356591 25.99954360659839 0  -3.005514371241349 25.99837267937663 0  -2.003535416901694 25.998436798391 0  -1.001655926767298 25.99847158221994 0  0.0001746929703893763 25.99847810508865 0  1.002005778939974 25.99845657630951 0  2.00388666141487 25.99840634111825 0  3.005867915480229 25.99832587876984 0  4.005929751633747 25.99949523925834 0  5.005856954041091 26.00066469544013 0  6.004266061336689 26.00047232903649 0  7.002784603502891 26.00030264204354 0  8.00137465368649 26.00014769213796 0  9 26 0  -9 28 0  -8.000659885639701 28.00020914173372 0  -7.001337992791306 28.00042704881696 0  -6.002053090766717 28.00066271146382 0  -5.002824768335255 28.00092557699397 0  -4.002862588890786 27.9995288012149 0  -3.002830141706732 27.99813163875538 0  -2.001784412542674 27.99821303466426 0  -1.00079128741227 27.99825944723968 0  0.0001760422793165355 27.99827208219444 0  1.001143722572137 27.99825126531442 0  2.002137889797623 27.99819644261969 0  3.003185323809535 27.99810617940771 0  4.003213479017365 27.99950302172243 0  5.00317095747415 28.00089987755728 0  6.00231240567424 28.00064388040972 0  7.001510702042847 28.00041470536106 0  8.00074618
[...]
<PointData  Vectors="f_44-2"> 
<DataArray  type="Float64"  Name="f_44-2"  NumberOfComponents="3" format="ascii">0.0000000000000000e+00 0.0000000000000000e+00 0.0000000000000000e+00  0.0000000000000000e+00 0.0000000000000000e+00 0.0000000000000000e+00  0.0000000000000000e+00 0.0000000000000000e+00 0.0000000000000000e+00  0.0000000000000000e+00 0.0000000000000000e+00 0.0000000000000000e+00  0.0000000000000000e+00 0.0000000000000000e+00 0.0000000000000000e+00  0.0000000000000000e+00 0.0000000000000000e+00 0.0000000000000000e+00  0.0000000000000000e+00 0.0000000000000000e+00 0.0000000000000000e+00  0.0000000000000000e+00 0.0000000000000000e+00 0.0000000000000000e+00  0.0000000000000000e+00 0.0000000000000000e+00 0.0000000000000000e+00  0.0000000000000000e+00 0.0000000000000000e+00 0.0000000000000000e+00  0.0000000000000000e+00 0.0000000000000000e+00 0.0000000000000000e+00  0.0000000000000000e+00 0.0000000000000000e+00 0.0000000000000000e+00  0.0000000000000000e+00 0.0000000000000000e+00 0.0000000000000000e+00  0.0000000000000000e+00 0.0000000000000000e+00 0.0000000000000000e+00  0.0000000000000000e+00 0.0000000000000000e+00 0.0000000000000000e+00  0.0000000000000000e+00 0.0000000000000000e+00 0.0000000000000000e+00  0.0000000000000000e+00 0.0000000000000000e+00 0.0000000000000000e+00  0.0000000000000000e+00 0.0000000000000000e+00 0.0000000000000000e+00  0.0000000000000000e+00 0.0000000000000000e+00 0.0000000000000000e+00  0.0000000000000000e+00 0.0000000000000000e+00 0.0000000000000000e+00  -1.1454636372556104e-05 -2.0312324480678629e-05 0.0000000000000000e+00  -2.4212295197526963e-05 -3.7892685683349403e-05 0.0000000000000000e+00  -4.1427367356662927e-05 -5.0496454507892991e-05 0.0000000000000000e+00  -7.0377410248778871e-05 -5.7061187452456574e-05 0.0000000000000000e+00  -3.8852042809472845e-05 -4.3630968366585670e-05 0.0000000000000000e+00  -6.4442707715356554e-06 -2.9549774297193905e-05 0.0000000000000000e+00  8.8261307450292168e-06 -1.5786645844109388e-05 0.0000000000000000e+00  1.0172984966700846e-05 -4.9485275697423775e-06 0.0000000000000000e+00  2.9319930604522998e-06 -4.7142524275319618e-07 0.0000000000000000e+00  -4.5109655960775821e-06 -4.5789457310330676e-06 0.0000000000000000e+00  -3.8533034155106595e-06 -1.6588136735847069e-05 0.0000000000000000e+00  1.0634293001788742e-05 -3.1466838155203025e-05 0.0000000000000000e+00  4.1122542267530186e-05 -4.8126569364136811e-05 0.0000000000000000e+00  8.6239231559677343e-05 -5.7406472829379239e-05 0.0000000000000000e+00  5.3413930372813639e-05 -5.3820233129691139e-05 0.0000000000000000e+00  3.2321621814808029e-05 -4.1047507201968673e-05 0.0000000000000000e+00  1.5565240091812758e-05 -2.2095254196975431e-05 0.0000000000000000e+00  0.0000000000000000e+00 0.0000000000000000e+00 0.0000000000000000e+00  0.0000000000000000e+00 0.0000000000000000e+00 0.0000000000000000e+00  -1.7696658631591169e-05 -5.1549650498812772e-05 0.0000000000000000e+00  -3.0595221277943059e-05 -9.5689651565622838e-05 0.0000000000000000e+00  -3.5914550636047699e-05 -1.2514791574490364e-04 0.0000000000000000e+00  -3.4327372377297290e-05 -1.3296301746385430e-04 0.0000000000000000e+00  1.3575021081862992e-05 -1.2754212490225200e-04 0.0000000000000000e+00  4.5362210883485144e-05 -8.6214123009837815e-05 0.0000000000000000e+00  5.2531357331893779e-05 -3.1750292863316693e-05 0.0000000000000000e+00  3.8326822949253609e-05 1.2063697141811299e-05 0.0000000000000000e+00  1.2596014808093853e-05 2.8947745312198066e-05 0.0000000000000000e+00  -1.3358714425928078e-05 1.2773299748868697e-05 0.0000000000000000e+00  -2.8187449044493060e-05 -2.8485377980301893e-05 0.0000000000000000e+00  -2.0374081850380804e-05 -8.4466225665793629e-05 0.0000000000000000e+00  1.3748558221370369e-05 -1.4220191286426091e-04 0.0000000000000000e+00  6.5758310607509456e-05 -1.6623421962267971e-04 0.0000000000000000e+00  5.9894878664331093e-05 -1.4438405701496388e-04 0.0000000000000000e+00  4.7298406315089755e-05 -1.0680945147566103e-04 0.0000000000000000e+00  2.6364342492404958e-05 -5.6758750954298976e-05 0.0000000000000000e+00  0.0000000000000000e+00 0.0000000000000000e+00 0.0000000000000000e+00  0.0000000000000000e+00 0.0000000000000000e+00 0.0000000000000000e+00  -4.3127671303525120e-05 -1.1241112652756470e-04 0.0000000000000000e+00  -6.7294948487738799e-05 -2.1220012481527558e-04 0.0000000000000000e+00  -5.8027562271586995e-05 -2.8635889782686191e-04 0.0000000000000000e+00  -1.1074803579705733e-05 -3.2230104187580007e-04 0.0000000000000000e+00  8.5175577731041457e-05 -2.6133839690862349e-04 0.0000000000000000e+00  1.2867472379288414e-04 -1.3078641735052434e-04 0.0000000000000000e+00  1.1094361694879005e-04 6.7543624735593905e-06 0.0000000000000000e+00  6.6796578396672641e-05 8.3574443651291766e-05 0.0000000000000000e+00  2.1434921742257582e-05 9.8094505378249611e-05 0.0000000000000000e+00  -2.0095598754739088e-05 7.0800811943612428e-05 0.0000000000000000e+00  -5.2166445170192452e-05 -3.3237882085396119e-06 0.0000000000000000e+00  -6.4178043866206235e-05 -1.2862335995562015e-04 0.0000000000000000e+00  -3.9836884528318736e-05 -2.5991200403440763e-04 0.0000000000000000e+00  4.7225259197315720e-05 -3.2861984274265392e-04 0.0000000000000000e+00  9.3307814943334149e-05 -2.9783229231688884e-04 0.0000000000000000e+00  9.5621132267279457e-05 -2.2246018038406373e-04 0.0000000000000000e+00  5.8877975917325548e-05 -1.1823950727436256e-04 0.0000000000000000e+00  0.0000000000000000e+00 0.0000000000000000e+00 0.0000000000000000e+00  0.0000000000000000e+00 0.0000000000000000e+00 0.0000000000000000e+00  -1.4430015001998180e-04 -2.2369381292481418e-04 0.0000000000000000e+00  -2.3770751139312707e-04 -4.3115863826040602e-04 0.0000000000000000e+00  -2.3086591798116753e-04 -6.0036363810928354e-04 0.0000000000000000e+00  -8.1136479407196196e-05 -6.9502473051484429e-04 0.0000000000000000e+00  1.0569287570012541e-04 -4.0640805351646776e-04 0.0000000000000000e+00  7.3808752952659324e-05 -6.6227467337358632e-05 0.0000000000000000e+00  5.7764081302027898e-06 1.0120963757119077e-04 0.0000000000000000e+00  6.8103965339604452e-07 1.2245418669302888e-04 0.0000000000000000e+00  4.2422487150749198e-05 1.2909824576913621e-04 0.0000000000000000e+00  7.2306393251622152e-05 1.4673896960241582e-04 0.0000000000000000e+00  5.6440442761022380e-05 7.1128110013431389e-05 0.0000000000000000e+00  -3.0885471919642036e-05 -5.7026942151644799e-05 0.0000000000000000e+00  -6.1853727797522720e-05 -3.7181236743053783e-04 0.0000000000000000e+00  1.3084526371028349e-04 -7.2733147960321479e-04 0.0000000000000000e+00  3.0174519216528658e-04 -6.2951354872274373e-04 0.0000000000000000e+00  3.0010664574279004e-04 -4.5342380982028125e-04 0.0000000000000000e+00  1.7987591227258277e-04 -2.3573356714074251e-04 0.0000000000000000e+00  0.0000000000000000e+00 0.0000000000000000e+00 0.0000000000000000e+00  0.0000000000000000e+00 0.0000000000000000e+00 0.0000000000000000e+00  -4.4870532386515375e-04 -3.9961921398418105e-04 0.0000000000000000e+00  -8.0888553621391460e-04 -8.0267469080300775e-04 0.0000000000000000e+00  -9.7490101135389495e-04 -1.2118438271156698e-03 0.0000000000000000e+00  -7.9922507865545084e-04 -1.6279084065993102e-03 0.0000000000000000e+00  -5.0479389651047818e-04 -6.9828715738042316e-04 0.0000000000000000e+00  -5.4818809944508109e-04 1.0169776899214241e-04 0.0000000000000000e+00  -4.2531598008326477e-04 -3.0027975688310160e-05 0.0000000000000000e+00  -1.6502011005371973e-04 -7.2449564796609530e-05 0.0000000000000000e+00  2.9423527045635517e-05 -8.3023297720311316e-05 0.0000000000000000e+00  2.2442544348725055e-04 -8.2988697209594744e-05 0.0000000000000000e+00  4.8755323752506645e-04 -9.1151425213909502e-05 0.0000000000000000e+00  7.1517785730335754e-04 2.1391160753355919e-04 0.0000000000000000e+00  6.8042202823141696e-04 -6.0526003176978324e-04 0.0000000000000000e+00  1.0386253848977147e-03 -1.6869194715365880e-03 0.0000000000000000e+00  1.1995675149624528e-03 -1.2736835829875747e-03 0.0000000000000000e+00  9.7846845577461740e-04 -8.5045346239239633e-04 0.0000000000000000e+00  5.3913189611533383e-04 -4.2518699762293308e-04 0.0000000000000000e+00  0.0000000000000000e+00 0.0000000000000000e+00 0.0000000000000000e+00  0.0000000000000000e+00 0.0000000000000000e+00 0.0000000000000000e+00  -1.1056491576069637e-03 -5.6121931199828307e-04 0.0000000000000000e+00  -2.1541683401724190e-03 -1.1487574064072451e-03 0.0000000000000000e+00  -3.0809828466506844e-03 -1.7940582696829757e-03 0.0000000000000000e+00  -3.8054063267527094e-03 -2.5408358660926572e-03 0.0000000000000000e+00  -3.6574046058247618e-03 -8.5360528852929877e-04 0.0000000000000000e+00  -3.7888148138677091e-03 8.1531055147685428e-04 0.0000000000000000e+00  -2.5137801273356838e-03 6.2515282771424916e-04 0.0000000000000000e+00  -1.1105643949342976e-03 5.2976747512415052e-04 0.0000000000000000e+00  3.3727674928414294e-04 5.2500313282497629e-04 0.0000000000000000e+00  1.7913415981936447e-03 6.1556105232773788e-04 0.0000000000000000e+00  3.2170577062207439e-03 8.2401974637534136e-04 0.0000000000000000e+00  4.5443353671083542e-03 1.2056529642504442e-03 0.0000000000000000e+00  4.3807634636220992e-03 -7.7217484427510288e-04 0.0000000000000000e+00  4.4887617821614562e-03 -2.7679463180487356e-03 0.0000000000000000e+00  3.6217524601677657e-03 -1.9564395821579537e-03 0.0000000000000000e+00  2.5278581549549057e-03 -1.2547728883407292e-03 0.0000000000000000e+00  1.2963833659703368e-03 -6.1379148708220750e-04 0.0000000000000000e+00  0.0000000000000000e+00 0.0000000000000000e+00 0.0000000000000000e+00  0.0000000000000000e+00 0.0000000000000000e+00 0.0000000000000000e+00  -1.9879050656525141e-03 -6.1689175395102406e-04 0.0000000000000000e+00  -3.9811297253200461e-03 -1.2626584751991351e-03 0.0000000000000000e+00  -5.9878275780833991e-03 -1.9687121927505018e-03 0.0000000000000000e+00  -8.0228197330619380e-03 -2.7714654598844680e-03 0.0000000000000000e+00  -8.0482128802201579e-03 -8.1433865821276051e-04 0.0000000000000000e+00  -8.0554370058150745e-03 1.1669208461700701e-03 0.0000000000000000e+00  -5.1210589990308827e-03 9.0246315159904034e-04 0.0000000000000000e+00  -2.2371729295403348e-03 7.7058195206165564e-04 0.0000000000000000e+00  6.2119373610823093e-04 7.5273832393738676e-04 0.0000000000000000e+00  3.4768804891025557e-03 8.4379646005195265e-04 0.0000000000000000e+00  6.3499584474927930e-03 1.0483612026348566e-03 0.0000000000000000e+00  9.2547527604163963e-03 1.3772326948010461e-03 0.0000000000000000e+00  9.2668777335787010e-03 -8.5451977256764428e-04 0.0000000000000000e+00  9.2862852921893023e-03 -3.0739990804818547e-03 0.0000000000000000e+00  6.9430464052312197e-03 -2.1970646001052085e-03 0.0000000000000000e+00  4.6225382567606464e-03 -1.4146882180779800e-03 0.0000000000000000e+00  2.3101687093850837e-03 -6.9272203569875439e-04 0.0000000000000000e+00  0.0000000000000000e+00 0.0000000000000000e+00 0.0000000000000000e+00  0.0000000000000000e+00 0.0000000000000000e+00 0.0000000000000000e+00  -2.8445269512015177e-03 -5.5663297239903634e-04 0.0000000000000000e+00  -5.7470104814412552e-03 -1.1344926874968439e-03 0.0000000000000000e+00  -8.7699038677557465e-03 -1.7551795855075380e-03 0.0000000000000000e+00  -1.1985787559180765e-02 -2.4408055731678234e-03 0.0000000000000000e+00  -1.2106785714805626e-02 -7.9862541407526471e-04 0.0000000000000000e+00  -1.1990909978997419e-02 8.3416584211415336e-04 0.0000000000000000e+00  -7.5378665056985428e-03 6.5308076386827582e-04 0.0000000000000000e+00  -3.2665675410413898e-03 5.5817361806343650e-04 0.0000000000000000e+00  9.1636656456467241e-04 5.4753377307774982e-04 0.0000000000000000e+00  5.0987493904062833e-03 6.2041694575372928e-04 0.0000000000000000e+00  9.3680560933361023e-03 7.7814241251331084e-04 0.0000000000000000e+00  1.3817029185753520e-02 1.0236594949067338e-03 0.0000000000000000e+00  1.3938174636921465e-02 -9.1623455295602248e-04 0.0000000000000000e+00  1.3829248955773943e-02 -2.8579537097171066e-03 0.0000000000000000e+00  1.0159112519625436e-02 -2.0575312765961293e-03 0.0000000000000000e+00  6.6759606062539983e-03 -1.3316158227439923e-03 0.0000000000000000e+00  3.3099202818266567e-03 -6.5396240573822211e-04 0.0000000000000000e+00  0.0000000000000000e+00 0.0000000000000000e+00 0.0000000000000000e+00  0.0000000000000000e+00 0.0000000000000000e+00 0.0000000000000000e+00  -3.4655172347554976e-03 -4.1135566309320537e-04 0.0000000000000000e+00  -7.0224136069757916e-03 -8.3453201416864220e-04 0.0000000000000000e+00  -1.0766753486090240e-02 -1.2811420966446409e-03 0.0000000000000000e+00  -1.4803833396352118e-02 -1.7624087568633890e-03 0.0000000000000000e+00  -1.4983985498109557e-02 -7.9905424500059804e-04 0.0000000000000000e+00  -1.4807215500448561e-02 1.6244197519288799e-04 0.0000000000000000e+00  -9.2428729605448425e-03 6.2236360548842821e-05 0.0000000000000000e+00  -3.9492885195429768e-03 1.1817261032034791e-05 0.0000000000000000e+00  1.2138022887188459e-03 1.1336273140454405e-05 0.0000000000000000e+00  6.3797445012456601e-03 6.0714653868936516e-05 0.0000000000000000e+00  1.1681724481057941e-02 1.5972012754812874e-04 0.0000000000000000e+00  1.7259383715093959e-02 3.0770850621358458e-04 0.0000000000000000e+00  1.7443738146540020e-02 -9.6071846540943771e-04 0.0000000000000000e+00  1.7266535140933133e-02 -2.2262261858947631e-03 0.0000000000000000e+00  1.2610958304275829e-02 -1.6187121906790921e-03 0.0000000000000000e+00  8.2505778800270706e-03 -1.0547179860357328e-03 0.0000000000000000e+00  4.0792336054874881e-03 -5.2014719849567204e-04 0.0000000000000000e+00  0.0000000000000000e+00 0.0000000000000000e+00 0.0000000000000000e+00  0.0000000000000000e+00 0.0000000000000000e+00 0.0000000000000000e+00  -3.7167593082356957e-03 -2.1886349059445048e-04 0.0000000000000000e+00  -7.5396176158210992e-03 -4.4071396627742778e-04 0.0000000000000000e+00  -1.1578694495210063e-02 -6.6818520938298509e-04 0.0000000000000000e+00  -1.5952140489355338e-02 -9.0325690379041074e-04 0.0000000000000000e+00  -1.6156582718421294e-02 -8.0251143389542220e-04 0.0000000000000000e+00  -1.5951060939917331e-02 -7.0417681537861179e-04 0.0000000000000000e+00  -9.8817144824510251e-03 -7.2561847336375513e-04 0.0000000000000000e+00  -4.1177734913760717e-03 -7.3201736269464716e-04 0.0000000000000000e+00  1.4997872051874734e-03 -7.2199370143820752e-04 0.0000000000000000e+00  7.1243138428014009e-03 -6.9525337241882620e-04 0.0000000000000000e+00  1.2909205897045303e-02 -6.5254753521126079e-04 0.0000000000000000e+00  1.9013814389196183e-02 -5.9577188570535133e-04 0.0000000000000000e+00  1.9226183815073856e-02 -9.8098647382143119e-04 0.0000000000000000e+00  1.9015968793953810e-02 -1.3646442208175267e-03 0.0000000000000000e+00  1.3865069696140667e-02 -1.0054426946154815e-03 0.0000000000000000e+00  9.0584156360708386e-03 -6.6139432526041196e-04 0.0000000000000000e+00  4.4745597816869629e-03 -3.2796010793058019e-04 0.0000000000000000e+00  2.6392984808098765e-10 0.0000000000000000e+00 0.0000000000000000e+00  0.0000000000000000e+00 0.0000000000000000e+00 0.0000000000000000e+00  -3.5396629531758710e-03 -1.4492815632525645e-05 0.0000000000000000e+00  -7.1835199186167532e-03 -2.4409580207332970e-05 0.0000000000000000e+00  -1.1039007260591019e-02 -2.4774646935471184e-05 0.0000000000000000e+00  -1.5220119262367156e-02 -9.7878433897703649e-06 0.0000000000000000e+00  -1.5419775666938772e-02 -8.1329179647013838e-04 0.0000000000000000e+00  -1.5219363480569431e-02 -1.6198442637684191e-03 0.0000000000000000e+00  -9.3161671617733258e-03 -1.5729071117049705e-03 0.0000000000000000e+00  -3.7089099069341591e-03 -1.5407259936238227e-03 0.0000000000000000e+00  1.7580802852246284e-03 -1.5213639760634898e-03 0.0000000000000000e+00  7.2358029722276096e-03 -1.5143081807383746e-03 0.0000000000000000e+00  1.2875437130655226e-02 -1.5204436433907012e-03 0.0000000000000000e+00  1.8833204388135169e-02 -1.5420796925839689e-03 0.0000000000000000e+00  1.9040313269996605e-02 -9.8552348469551319e-04 0.0000000000000000e+00  1.8827024298852184e-02 -4.2884315313965210e-04 0.0000000000000000e+00  1.3725317493435531e-02 -3.3178115251322754e-04 0.0000000000000000e+00  8.9654890911901215e-03 -2.2562903279124301e-04 0.0000000000000000e+00  4.4279923172757503e-03 -1.1406507921597131e-04 0.0000000000000000e+00  0.0000000000000000e+00 0.0000000000000000e+00 0.0000000000000000e+00  0.0000000000000000e+00 0.0000000000000000e+00 0.0000000000000000e+00  -2.9416712253970702e-03 1.7159580627198830e-04 0.0000000000000000e+00  -5.9721968757889708e-03 3.5371537368946489e-04 0.0000000000000000e+00  -9.1823255596169759e-03 5.5724187572522041e-04 0.0000000000000000e+00  -1.2668052393803877e-02 7.9406228096966431e-04 0.0000000000000000e+00  -1.2839851437996624e-02 -8.3313474135770929e-04 0.0000000000000000e+00  -1.2671472225551601e-02 -2.4634994891839348e-03 0.0000000000000000e+00  -7.5837162124445167e-03 -2.3618521056877687e-03 0.0000000000000000e+00  -2.7467066416007198e-03 -2.2987918795779293e-03 0.0000000000000000e+00  1.9739501288894091e-03 -2.2721379195796377e-03 0.0000000000000000e+00  6.7084467459609066e-03 -2.2812630633126381e-03 0.0000000000000000e+00  1.1587246275975890e-02 -2.3270870952278554e-03 0.0000000000000000e+00  1.6744806375648322e-02 -2.4120865507502227e-03 0.0000000000000000e+00  1.6919577662237482e-02 -9.8017975831904565e-04 0.0000000000000000e+00  1.6728089525591690e-02 4.5096239454815354e-04 0.0000000000000000e+00  1.2202504007210808e-02 3.0536595119058532e-04 0.0000000000000000e+00  7.9739717023924028e-03 1.8836885986909513e-04 0.0000000000000000e+00  3.9391922469936020e-03 8.9707345345262410e-05 0.0000000000000000e+00  0.0000000000000000e+00 0.0000000000000000e+00 0.0000000000000000e+00  0.0000000000000000e+00 0.0000000000000000e+00 0.0000000000000000e+00  -1.9846750779963594e-03 3.1569652127549192e-04 0.0000000000000000e+00  -4.0320161921504572e-03 6.4604500197897497e-04 0.0000000000000000e+00  -6.2065805446241242e-03 1.0061280700560827e-03 0.0000000000000000e+00  -8.5762814482782789e-03 1.4119807066332126e-03 0.0000000000000000e+00  -8.7022891203936831e-03 -8.6229938997147023e-04 0.0000000000000000e+00  -8.5860043229773735e-03 -3.1393830002875499e-03 0.0000000000000000e+00  -4.8676212104395182e-03 -2.9979961125119522e-03 0.0000000000000000e+00  -1.3264779214583386e-03 -2.9127647683300007e-03 0.0000000000000000e+00  2.1351890312810086e-03 -2.8813351412992328e-03 0.0000000000000000e+00  5.6128053020953325e-03 -2.9029910041338106e-03 0.0000000000000000e+00  9.2021320308606127e-03 -2.9786535407588361e-03 0.0000000000000000e+00  1.3001719512374540e-02 -3.1108856493997062e-03 0.0000000000000000e+00  1.3124019810077102e-02 -9.6993389025081856e-04 0.0000000000000000e+00  1.2973850122204950e-02 1.1697724758757578e-03 0.0000000000000000e+00  9.4761991768135233e-03 8.2803831804223037e-04 0.0000000000000000e+00  6.1981840723827376e-03 5.2900599389319142e-04 0.0000000000000000e+00  3.0636883324211780e-03 2.5768228559040166e-04 0.0000000000000000e+00  0.0000000000000000e+00 0.0000000000000000e+00 0.0000000000000000e+00  0.0000000000000000e+00 0.0000000000000000e+00 0.0000000000000000e+00  -7.7143158105532153e-04 4.0130382684858406e-04 0.0000000000000000e+00  -1.5728108862977236e-03 8.1952977580358993e-04 0.0000000000000000e+00  -2.4352913868865935e-03 1.2720433368440746e-03 0.0000000000000000e+00  -3.3913650331013874e-03 1.7771552737425060e-03 0.0000000000000000e+00  -3.4588811794380625e-03 -8.9858517582110781e-04 0.0000000000000000e+00  -3.4072929947187376e-03 -3.5762484589719240e-03 0.0000000000000000e+00  -1.4582406989302817e-03 -3.4111560619350442e-03 0.0000000000000000e+00  4.0457695638828294e-04 -3.3131793690004134e-03 0.0000000000000000e+00  2.2334410008437232e-03 -3.2798572002456965e-03 0.0000000000000000e+00  4.0794883520986524e-03 -3.3103860682453579e-03 0.0000000000000000e+00  5.9941137509822422e-03 -3.4056758799390018e-03 0.0000000000000000e+00  8.0303700678368058e-03 -3.5683514330056253e-03 0.0000000000000000e+00  8.0875461053515774e-03 -9.5749317457682263e-04 0.0000000000000000e+00  7.993102