<?xml version="1.0"?>
<VTKFile type="UnstructuredGrid"  version="0.1"  >
<UnstructuredGrid>
<Piece  NumberOfPoints="589" NumberOfCells="1080">
<Points>
<DataArray  type="Float64"  NumberOfComponents="3"  format="ascii">-9 0 0  -8 0 0  -7 0 0  -6 0 0  -5 0 0  -4 0 0  -3 0 0  -2 0 0  -1 0 0  0 0 0  1 0 0  2 0 0  3 0 0  4 0 0  5 0 0  6 0 0  7 0 0  8 0 0  9 0 0  -9 2 0  -8.000000308422791 1.999999726269703 0  -7.0000006613965 1.999999460993785 0  -6.000001127229586 1.999999207939962 0  -5.000001831740711 1.999998958703398 0  -4.000001367551246 1.99999928909294 0  -3.000000828273387 1.999999469451341 0  -2.000000474592377 1.999999580406038 0  -1.000000227749996 1.99999966336855 0  -4.545756600102432e-08 1.999999697741966 0  1.000000130737576 1.999999676416803 0  2.000000355412736 1.999999602458715 0  3.000000672189381 1.999999496616305 0  4.000001107127557 1.999999350192853 0  5.000001682255255 1.999999206462983 0  6.000001031300775 1.999999338981078 0  7.000000603428593 1.999999529994618 0  8.00000028097919 1.99999975647168 0  9 2 0  -9 4 0  -8.000000438641678 3.999999418722235 0  -7.00000087135516 3.999998873099539 0  -6.000001299746359 3.999998400611211 0  -5.000001733997195 3.999998043160913 0  -4.000001208840449 3.999998125307961 0  -3.000000760191325 3.999998424197625 0  -2.000000432957644 3.999998811190036 0  -1.000000211810795 3.999999105428782 0  -5.900432272548272e-08 3.999999225294626 0  1.000000088564856 3.999999144865177 0  2.000000295862314 3.999998903350545 0  3.000000623984401 3.999998561669523 0  4.0000010773016 3.999998207835948 0  5.000001569561546 3.999998031491705 0  6.000001170271241 3.999998443980699 0  7.000000785165554 3.999998918135538 0  8.000000396077176 3.999999444738676 0  9 4 0  -9 6 0  -8.000000592573114 5.999998968555341 0  -7.000001098602999 5.999997992668542 0  -6.000001448824858 5.999997133130888 0  -5.000001617939932 5.999996456501465 0  -4.000000851823173 5.999996805583641 0  -3.000000367442083 5.999997565972847 0  -2.000000188362852 5.999998364525598 0  -1.000000148763399 5.999998825470305 0  -1.177875048893798e-07 5.9999989396453 0  0.9999999420972542 5.999998789175019 0  2.00000006298009 5.999998383375195 0  3.000000268865217 5.999997722646268 0  4.000000634497795 5.999997039330303 0  5.000001312360197 5.999996719320961 0  6.000001252503522 5.999997302317528 0  7.000000982833235 5.999998096484044 0  8.000000539130138 5.99999901837373 0  9 6 0  -9 8 0  -8.000001092676444 7.999998296159512 0  -7.000001949082634 7.999996646843599 0  -6.000002322331133 7.999995134020064 0  -5.000001955406118 7.9999939085443 0  -4.00000081811481 7.999995460682877 0  -3.000000712953356 7.999997289413132 0  -2.000000810469262 7.999998244310463 0  -1.000000589795339 7.999998452285443 0  -1.472663115426713e-07 7.999998518938565 0  1.000000256706928 7.999998560481991 0  2.000000408267663 7.999998161348827 0  3.000000258228726 7.999997409036223 0  4.000000468431836 7.999995849611084 0  5.000001677136265 7.999994154437358 0  6.000002173989559 7.999995315977414 0  7.000001876631064 7.999996763942298 0  8.000001063889945 7.99999835306461 0  9 8 0  -9 10 0  -8.000002537852996 9.999997405672547 0  -7.000004732179862 9.999994755059561 0  -6.000006156522098 9.999991985535067 0  -5.00000618332424 9.99998901892452 0  -4.000004647270016 9.999993400572874 0  -3.000004339950184 9.999997256976235 0  -2.000003208764765 9.999996955257135 0  -1.000001595132136 9.999996857995491 0  -2.927544386113515e-07 9.999996838791578 0  1.000001002933505 9.999996813831423 0  2.000002571223068 9.999996698788706 0  3.000004258139326 9.999997653769674 0  4.00000461506549 9.999993982635846 0  5.000006252379208 9.999989361889996 0  6.000006272308845 9.999992183950178 0  7.000004831950491 9.999994866778463 0  8.00000259323836 9.999997456508762 0  9 10 0  -9 12 0  -8.000005357105108 11.9999967403391 0  -7.00001059517017 11.99999333893951 0  -6.000015580779403 11.99998962542296 0  -5.00002015733127 11.99998536150775 0  -4.000019630105732 11.99999229273819 0  -3.000019890787808 11.99999915216406 0  -2.00001325613708 11.99999829554293 0  -1.000006550708398 11.9999978451505 0  1.51345444001057e-07 11.99999774791987 0  1.000006924920251 11.99999800976238 0  2.000013873641761 11.99999872878147 0  3.000021031761583 12.00000016354784 0  4.000020856453736 11.99999273464425 0  5.000021120315896 11.99998527784152 0  6.00001621172261 11.99998960887511 0  7.00001098065385 11.99999334202285 0  8.000005540670024 11.99999674491991 0  9 12 0  -9 14 0  -8.000008652467221 13.99999664197033 0  -7.000017467906226 13.99999317130408 0  -6.00002664113679 13.99998946692948 0  -5.000036442527633 13.99998539293658 0  -4.000036716020151 13.99999218160936 0  -3.000036329381014 13.99999909532835 0  -2.000023586723178 13.99999801093981 0  -1.00001149283202 13.99999741967701 0  3.093670799764902e-07 13.99999722077212 0  1.000012146384465 13.9999973770076 0  2.000024338594985 13.99999789581869 0  3.000037214397599 13.99999881066848 0  4.000037749506299 13.99999204893564 0  5.000037619609651 13.9999853666567 0  6.000027440905067 13.99998942538689 0  7.000017964933426 13.9999931382951 0  8.000008890796982 13.99999662461262 0  9 14 0  -9 16 0  -8.000011295883887 15.99999699415158 0  -7.000022909380871 15.99999393851095 0  -6.000035188699723 15.99999078692223 0  -5.000048545810198 15.999987503056 0  -4.000049094256715 15.99999190219981 0  -3.000048348420625 15.99999625474429 0  -2.000031322401373 15.99999575387938 0  -1.00001526825883 15.99999542480663 0  3.281134573058123e-07 15.99999527309312 0  1.000015947141119 15.99999529397985 0  2.00003206932141 15.99999547873059 0  3.000049210825744 15.99999581166099 0  4.000050001780563 15.99999153159728 0  5.000049475545269 15.99998725116512 0  6.000035858971913 15.99999062519965 0  7.000023341761686 15.99999384094094 0  8.000011507501355 15.99999694803145 0  9 16 0  -9 18 0  -8.000012668796616 17.99999754549941 0  -7.000025687475813 17.99999508950924 0  -6.000039424947258 17.99999263602346 0  -5.000054287989871 17.99999020072041 0  -4.000054895034448 17.99999154194268 0  -3.00005414280755 17.99999288420497 0  -2.000035170746295 17.99999280975539 0  -1.000017212680909 17.99999272051823 0  2.562350535292864e-07 17.99999263503266 0  1.000017735355913 17.99999255551416 0  2.000035722903704 17.99999246893851 0  3.000054739947348 17.99999234534605 0  4.000055508015659 17.99999113415174 0  5.000054902263396 17.99998994255337 0  6.000039879422276 17.99999245818494 0  7.000025986688018 17.99999497818957 0  8.00001281711188 17.99999749193626 0  9 18 0  -9 20 0  -8.00001264214127 19.99999810280082 0  -7.000025590326225 19.99999623048388 0  -6.000039158802926 19.99999441238453 0  -5.000053677447181 19.99999268689472 0  -4.000054207704536 19.99999120266074 0  -3.000053575102355 19.99998972303299 0  -2.000034963258416 19.99998992477803 0  -1.000017200612336 19.99999000120557 0  1.435365865598907e-07 19.99998997310457 0  1.000017489929354 19.99998984527626 0  2.000035258645002 19.99998960720848 0  3.000053878396113 19.99998923260799 0  4.000054501797763 19.99999085816354 0  5.000053966236477 19.99999249576055 0  6.000039379317407 19.99999427366791 0  7.000025738903842 19.9999961404632 0  8.000012716833487 19.99999805856759 0  9 20 0  -9 22 0  -8.000011391286387 21.99999856056841 0  -7.000023011953076 21.99999715458126 0  -6.000035091892486 21.99999581829714 0  -5.000047861122599 21.99999459360867 0  -4.000048264009577 21.99999090177714 0  -3.000047816652694 21.99998721736288 0  -2.000031359094202 21.99998754105494 0  -1.000015514527345 21.9999876999941 0  2.186509127704042e-08 21.99998771007354 0  1.000015555269888 21.99998757598262 0  2.000031390365838 21.99998729159224 0  3.000047830446141 21.99998684005545 0  4.000048259583676 21.99999065771648 0  5.000047848170875 21.99999448297735 0  6.000035093095903 21.99999573358848 0  7.000023017691987 21.99999709749297 0  8.000011395584798 21.99999853188159 0  9 22 0  -9 24 0  -8.000009222894628 23.99999888455478 0  -7.000018596447642 23.99999779986114 0  -6.000028267747304 23.99999677781924 0  -5.000038375929546 23.99999585254841 0  -4.0000386586493 23.99999066233728 0  -3.000038397049571 23.99998548172771 0  -2.000025303055494 23.99998581632545 0  -1.000012595787199 23.99998599420568 0  -8.785264005045119e-08 23.99998602370817 0  1.000012413894933 23.99998590787033 0  2.000025102248462 23.99998564454281 0  3.00003816354664 23.99998522667583 0  4.000038405692794 23.99999051499998 0  5.000038117693789 23.99999580959241 0  6.000028088131076 23.99999674032793 0  7.000018483255236 23.99999777258089 0  8.000009168234033 23.99999887027281 0  9 24 0  -9 26 0  -8.000006451858903 25.99999908553283 0  -7.000012989928891 25.99999819453088 0  -6.000019696015601 25.99999735025251 0  -5.000026642517905 25.99999657542796 0  -4.000026839335827 25.99999049628318 0  -3.000026733096054 25.99998442719714 0  -2.000017700195881 25.99998471845224 0  -1.000008879748218 25.99998488191549 0  -1.72819862707095e-07 25.99998491869168 0  1.00000852613731 25.99998482970367 0  2.00001732243476 25.999984615637 0  3.000026314304397 25.99998427729436 0  4.000026403930635 25.99999042084979 0  5.000026206585731 25.99999657039565 0  6.000019384364665 25.99999734099336 0  7.000012789370537 25.99999818591001 0  8.000006353726818 25.99999908052096 0  9 26 0  -9 28 0  -8.00000333597106 27.99999919264902 0  -7.000006711316303 27.99999840230499 0  -6.000010162578964 27.99999764490566 0  -5.000013720324415 27.99999693410232 0  -4.000013868437662 27.99999040588824 0  -3.000013880917457 27.99998388707612 0  -2.000009247596354 27.99998413173835 0  -1.000004709666049 27.99998427636596 0  -2.259016784573934e-07 27.99998431672455 0  1.000004249054076 27.9999842518441 0  2.000008760397561 27.9999840838267 0  3.000013348888315 27.99998381819493 0  4.000013323064867 27.99999037461213 0  5.000013178371496 27.99999693783388 0  6.000009771642978 27.99999764438123 0  7.000006458058425 27.99999840046082 0  8.000003211545705 27.99999919129599 0  9 28 0  -9 3
[...]
<PointData  Vectors="f_44-2"> 
<DataArray  type="Float64"  Name="f_44-2"  NumberOfComponents="3" format="ascii">0.0000000000000000e+00 0.0000000000000000e+00 0.0000000000000000e+00  0.0000000000000000e+00 0.0000000000000000e+00 0.0000000000000000e+00  0.0000000000000000e+00 0.0000000000000000e+00 0.0000000000000000e+00  0.0000000000000000e+00 0.0000000000000000e+00 0.0000000000000000e+00  0.0000000000000000e+00 0.0000000000000000e+00 0.0000000000000000e+00  0.0000000000000000e+00 0.0000000000000000e+00 0.0000000000000000e+00  0.0000000000000000e+00 0.0000000000000000e+00 0.0000000000000000e+00  0.0000000000000000e+00 0.0000000000000000e+00 0.0000000000000000e+00  0.0000000000000000e+00 0.0000000000000000e+00 0.0000000000000000e+00  0.0000000000000000e+00 0.0000000000000000e+00 0.0000000000000000e+00  0.0000000000000000e+00 0.0000000000000000e+00 0.0000000000000000e+00  0.0000000000000000e+00 0.0000000000000000e+00 0.0000000000000000e+00  0.0000000000000000e+00 0.0000000000000000e+00 0.0000000000000000e+00  0.0000000000000000e+00 0.0000000000000000e+00 0.0000000000000000e+00  0.0000000000000000e+00 0.0000000000000000e+00 0.0000000000000000e+00  0.0000000000000000e+00 0.0000000000000000e+00 0.0000000000000000e+00  0.0000000000000000e+00 0.0000000000000000e+00 0.0000000000000000e+00  0.0000000000000000e+00 0.0000000000000000e+00 0.0000000000000000e+00  0.0000000000000000e+00 0.0000000000000000e+00 0.0000000000000000e+00  0.0000000000000000e+00 0.0000000000000000e+00 0.0000000000000000e+00  -1.5022989561695638e-05 -1.4928228011520028e-05 0.0000000000000000e+00  -3.2084392577342223e-05 -2.9030629633675569e-05 0.0000000000000000e+00  -5.4521883984926019e-05 -4.1760755745795371e-05 0.0000000000000000e+00  -8.8754051816415929e-05 -5.3281800058956809e-05 0.0000000000000000e+00  -6.3919329821343084e-05 -3.7104075083462901e-05 0.0000000000000000e+00  -3.5907992476202005e-05 -2.7105841013239439e-05 0.0000000000000000e+00  -1.8607144659394858e-05 -2.0063036278542803e-05 0.0000000000000000e+00  -8.1804990014139619e-06 -1.4683567359389692e-05 0.0000000000000000e+00  -1.9639328867812168e-06 -1.2396009923316596e-05 0.0000000000000000e+00  3.8800765416970758e-06 -1.3850320412049059e-05 0.0000000000000000e+00  1.2987445916228998e-05 -1.8769445720448759e-05 0.0000000000000000e+00  2.8074606897729218e-05 -2.5402794581862761e-05 0.0000000000000000e+00  5.0474226862678069e-05 -3.3803001971190932e-05 0.0000000000000000e+00  8.0702910586559118e-05 -4.0513360381619705e-05 0.0000000000000000e+00  4.9312775186401782e-05 -3.4890076448088663e-05 0.0000000000000000e+00  2.8919909696309074e-05 -2.5334616514134850e-05 0.0000000000000000e+00  1.3521005857408617e-05 -1.3282893731760203e-05 0.0000000000000000e+00  0.0000000000000000e+00 0.0000000000000000e+00 0.0000000000000000e+00  0.0000000000000000e+00 0.0000000000000000e+00 0.0000000000000000e+00  -2.1892298992151705e-05 -3.3159721145211017e-05 0.0000000000000000e+00  -4.2664401634979713e-05 -6.3550322283836852e-05 0.0000000000000000e+00  -6.1864999478187147e-05 -8.8357806591729098e-05 0.0000000000000000e+00  -8.0010205499155617e-05 -1.0465431527822043e-04 0.0000000000000000e+00  -4.9902976401312522e-05 -9.9958335003640057e-05 0.0000000000000000e+00  -2.5839212319569323e-05 -8.0180749311286435e-05 0.0000000000000000e+00  -1.1118305708474160e-05 -5.4533098011698564e-05 0.0000000000000000e+00  -4.5365694047359728e-06 -3.4580249041290734e-05 0.0000000000000000e+00  -2.8119188990607113e-06 -2.6463235265150667e-05 0.0000000000000000e+00  -1.3964585436426089e-06 -3.2187769809780498e-05 0.0000000000000000e+00  4.2874140973792357e-06 -4.8692905973673497e-05 0.0000000000000000e+00  1.8655481991509645e-05 -7.1619562208388276e-05 0.0000000000000000e+00  4.2479150886947913e-05 -9.5039277012173138e-05 0.0000000000000000e+00  7.0868109573710389e-05 -1.0506089519178459e-04 0.0000000000000000e+00  5.4636362881972325e-05 -8.5508822690799405e-05 0.0000000000000000e+00  3.7863919927149335e-05 -6.0654239668160662e-05 0.0000000000000000e+00  1.9530384389851130e-05 -3.1490428998073195e-05 0.0000000000000000e+00  0.0000000000000000e+00 0.0000000000000000e+00 0.0000000000000000e+00  0.0000000000000000e+00 0.0000000000000000e+00 0.0000000000000000e+00  -3.3242367480600452e-05 -6.2467582874939283e-05 0.0000000000000000e+00  -5.9530437436456938e-05 -1.2040238630319723e-04 0.0000000000000000e+00  -7.3429719340485525e-05 -1.6899868793227536e-04 0.0000000000000000e+00  -7.3168323484299461e-05 -2.0332379185369467e-04 0.0000000000000000e+00  -2.4824673275167803e-05 -1.7776284533713000e-04 0.0000000000000000e+00  2.6215701129565899e-06 -1.2317361368389834e-04 0.0000000000000000e+00  6.6288684186939239e-06 -6.5893701154985567e-05 0.0000000000000000e+00  3.0582358023022248e-07 -3.3360193155133787e-05 0.0000000000000000e+00  -6.4545052110396938e-06 -2.5926132086127096e-05 0.0000000000000000e+00  -1.1233084566061460e-05 -3.6447590590047731e-05 0.0000000000000000e+00  -1.1845405177843634e-05 -6.5172070686946346e-05 0.0000000000000000e+00  -5.6273714941647571e-06 -1.1267815387553378e-04 0.0000000000000000e+00  1.3175857878306919e-05 -1.6181499705427945e-04 0.0000000000000000e+00  5.5265449273539589e-05 -1.8530313724739308e-04 0.0000000000000000e+00  6.2122770135102432e-05 -1.5733753484981197e-04 0.0000000000000000e+00  5.3052293429061159e-05 -1.1321067334921599e-04 0.0000000000000000e+00  3.0327124972768854e-05 -5.9004331874644546e-05 0.0000000000000000e+00  0.0000000000000000e+00 0.0000000000000000e+00 0.0000000000000000e+00  0.0000000000000000e+00 0.0000000000000000e+00 0.0000000000000000e+00  -7.2409886795699553e-05 -1.0990619781336813e-04 0.0000000000000000e+00  -1.2595156728549016e-04 -2.1460808040534203e-04 0.0000000000000000e+00  -1.4163721444200681e-04 -3.0672400939988519e-04 0.0000000000000000e+00  -1.0141948989281288e-04 -3.7347253654924456e-04 0.0000000000000000e+00  -2.1614040741163945e-05 -2.5801923232065583e-04 0.0000000000000000e+00  -2.3696993942092325e-05 -1.2206581821448762e-04 0.0000000000000000e+00  -4.0504985237438058e-05 -5.3199520182370374e-05 0.0000000000000000e+00  -3.2906568926553180e-05 -4.1345070148255848e-05 0.0000000000000000e+00  -7.7068441493759026e-06 -3.7666132071679136e-05 0.0000000000000000e+00  1.4067760867321006e-05 -3.3028229188094545e-05 0.0000000000000000e+00  1.7801473522043541e-05 -6.1697617984693071e-05 0.0000000000000000e+00  -2.8616025722244687e-06 -1.1338759503330949e-04 0.0000000000000000e+00  6.8329609329644734e-07 -2.2904350855918918e-04 0.0000000000000000e+00  8.2421795059445650e-05 -3.5683235381696646e-04 0.0000000000000000e+00  1.3332023827907204e-04 -2.9381085332939112e-04 0.0000000000000000e+00  1.2285924571275321e-04 -2.0608466592732933e-04 0.0000000000000000e+00  7.1531490650156968e-05 -1.0570988450737445e-04 0.0000000000000000e+00  0.0000000000000000e+00 0.0000000000000000e+00 0.0000000000000000e+00  0.0000000000000000e+00 0.0000000000000000e+00 0.0000000000000000e+00  -1.8704896353942814e-04 -1.7816095168240450e-04 0.0000000000000000e+00  -3.4380133179297642e-04 -3.5915593128945403e-04 0.0000000000000000e+00  -4.3345676489264622e-04 -5.4591624587634112e-04 0.0000000000000000e+00  -4.0348257198251472e-04 -7.4163861894055850e-04 0.0000000000000000e+00  -2.8745729970944094e-04 -3.9367410089920972e-04 0.0000000000000000e+00  -2.8417051296593041e-04 -9.0729274785902601e-05 0.0000000000000000e+00  -2.1727548724580174e-04 -1.2815189898994392e-04 0.0000000000000000e+00  -1.0528492454480919e-04 -1.4015345725507510e-04 0.0000000000000000e+00  -1.8310598656463102e-05 -1.4289555820711408e-04 0.0000000000000000e+00  6.8061155988801152e-05 -1.4378097932892357e-04 0.0000000000000000e+00  1.7669086788397708e-04 -1.4937821059722245e-04 0.0000000000000000e+00  2.8448021028130798e-04 -5.8789902210804650e-05 0.0000000000000000e+00  2.9388924666846704e-04 -3.4488326742385307e-04 0.0000000000000000e+00  4.2067836734680371e-04 -7.1315681966948414e-04 0.0000000000000000e+00  4.4995310795250398e-04 -5.2910094595805051e-04 0.0000000000000000e+00  3.5613175356520604e-04 -3.4955182638357027e-04 0.0000000000000000e+00  1.9354970647674380e-04 -1.7375499479388404e-04 0.0000000000000000e+00  0.0000000000000000e+00 0.0000000000000000e+00 0.0000000000000000e+00  0.0000000000000000e+00 0.0000000000000000e+00 0.0000000000000000e+00  -4.2286946089058609e-04 -2.3507766577861595e-04 0.0000000000000000e+00  -8.3003099678865958e-04 -4.8063937091409386e-04 0.0000000000000000e+00  -1.2037542280015580e-03 -7.4925523843940808e-04 0.0000000000000000e+00  -1.5224461921766819e-03 -1.0584852274972939e-03 0.0000000000000000e+00  -1.4727329188842704e-03 -4.6519620638939014e-04 0.0000000000000000e+00  -1.5081994007737703e-03 1.2217353488500228e-04 0.0000000000000000e+00  -1.0222909920251987e-03 5.0231379470074735e-05 0.0000000000000000e+00  -5.0761024638246621e-04 1.1567788912158643e-05 0.0000000000000000e+00  1.6937578161944570e-05 3.2484649581594587e-06 0.0000000000000000e+00  5.4713628388157031e-04 2.6151341880454615e-05 0.0000000000000000e+00  1.0810510353828548e-03 8.7921685422109153e-05 0.0000000000000000e+00  1.6082760624050369e-03 2.0822298965742409e-04 0.0000000000000000e+00  1.5752559392263963e-03 -4.2305001483248052e-04 0.0000000000000000e+00  1.6040450166790845e-03 -1.0580911219923448e-03 0.0000000000000000e+00  1.2589602834695887e-03 -7.4635992200060123e-04 0.0000000000000000e+00  8.6444166435551285e-04 -4.7800714691870541e-04 0.0000000000000000e+00  4.3943493090834037e-04 -2.3363100327416215e-04 0.0000000000000000e+00  0.0000000000000000e+00 0.0000000000000000e+00 0.0000000000000000e+00  0.0000000000000000e+00 0.0000000000000000e+00 0.0000000000000000e+00  -7.2151264561018185e-04 -2.5005642674951053e-04 0.0000000000000000e+00  -1.4499998973161521e-03 -5.0990311482413851e-04 0.0000000000000000e+00  -2.1941533972964114e-03 -7.9013341204710156e-04 0.0000000000000000e+00  -2.9669462574153913e-03 -1.1028454215152863e-03 0.0000000000000000e+00  -2.9807338593841252e-03 -4.5982226140489445e-04 0.0000000000000000e+00  -2.9675509975391201e-03 1.9286587823357101e-04 0.0000000000000000e+00  -1.9424133592922065e-03 9.5504682256611123e-05 0.0000000000000000e+00  -9.4941190097053184e-04 4.1915241017859521e-05 0.0000000000000000e+00  2.9583452991902054e-05 2.4506583772368301e-05 0.0000000000000000e+00  1.0113589278105900e-03 4.0617401116104620e-05 0.0000000000000000e+00  2.0121929948782357e-03 9.1103376831013007e-05 0.0000000000000000e+00  3.0478618566093922e-03 1.7893877740528323e-04 0.0000000000000000e+00  3.0738111517464007e-03 -4.6317687904874518e-04 0.0000000000000000e+00  3.0716120916482481e-03 -1.0998166181282053e-03 0.0000000000000000e+00  2.2656801082334916e-03 -7.9009767185184068e-04 0.0000000000000000e+00  1.4946948628536147e-03 -5.1055153161421373e-04 0.0000000000000000e+00  7.4302435221397262e-04 -2.5052404238067228e-04 0.0000000000000000e+00  0.0000000000000000e+00 0.0000000000000000e+00 0.0000000000000000e+00  0.0000000000000000e+00 0.0000000000000000e+00 0.0000000000000000e+00  -9.9224644085436908e-04 -2.2587331992302589e-04 0.0000000000000000e+00  -2.0072860119077092e-03 -4.5763057693318725e-04 0.0000000000000000e+00  -3.0699666805084525e-03 -7.0108203396724276e-04 0.0000000000000000e+00  -4.2095030967427473e-03 -9.6171618306181521e-04 0.0000000000000000e+00  -4.2519819604594587e-03 -4.6583516056051074e-04 0.0000000000000000e+00  -4.2019749732180485e-03 2.6477675968917553e-05 0.0000000000000000e+00  -2.7340198365142436e-03 -3.4300416548059927e-05 0.0000000000000000e+00  -1.3352020979902530e-03 -7.2453768687376073e-05 0.0000000000000000e+00  3.1108587332154104e-05 -8.8307312829041039e-05 0.0000000000000000e+00  1.3993592797037985e-03 -8.2411431774299644e-05 0.0000000000000000e+00  2.8040218571233244e-03 -5.5106919859064892e-05 0.0000000000000000e+00  4.2819584607707347e-03 -6.7199632587456689e-06 0.0000000000000000e+00  4.3366008000384803e-03 -4.9328816677811425e-04 0.0000000000000000e+00  4.2964348602042100e-03 -9.8017474294005897e-04 0.0000000000000000e+00  3.1325794936322517e-03 -7.1314126368051214e-04 0.0000000000000000e+00  2.0476688364288328e-03 -4.6501900983291833e-04 0.0000000000000000e+00  1.0120160947106052e-03 -2.2940209525553566e-04 0.0000000000000000e+00  0.0000000000000000e+00 0.0000000000000000e+00 0.0000000000000000e+00  0.0000000000000000e+00 0.0000000000000000e+00 0.0000000000000000e+00  -1.1718102122722381e-03 -1.7815468558051651e-04 0.0000000000000000e+00  -2.3739456174997212e-03 -3.5858105777841325e-04 0.0000000000000000e+00  -3.6383280053656252e-03 -5.4329962740338317e-04 0.0000000000000000e+00  -5.0000854837739103e-03 -7.3378047958033536e-04 0.0000000000000000e+00  -5.0562624632581833e-03 -4.7903266049091587e-04 0.0000000000000000e+00  -4.9949482940448127e-03 -2.2454664920209061e-04 0.0000000000000000e+00  -3.2491017021565975e-03 -2.5464656892035926e-04 0.0000000000000000e+00  -1.5909788928508157e-03 -2.7601740772501096e-04 0.0000000000000000e+00  2.4872964512972452e-05 -2.8811425287161000e-04 0.0000000000000000e+00  1.6417252071538565e-03 -2.9107035459535556e-04 0.0000000000000000e+00  3.3027836177082922e-03 -2.8564313236778229e-04 0.0000000000000000e+00  5.0532555556892277e-03 -2.7332641608035426e-04 0.0000000000000000e+00  5.1172250466037421e-03 -5.1658950837074494e-04 0.0000000000000000e+00  5.0620473330582781e-03 -7.5855751423791146e-04 0.0000000000000000e+00  3.6836679550633694e-03 -5.6053932480668717e-04 0.0000000000000000e+00  2.4035909929885088e-03 -3.6946473765159525e-04 0.0000000000000000e+00  1.1864496867457712e-03 -1.8342096601428270e-04 0.0000000000000000e+00  0.0000000000000000e+00 0.0000000000000000e+00 0.0000000000000000e+00  0.0000000000000000e+00 0.0000000000000000e+00 0.0000000000000000e+00  -1.2300650929041607e-03 -1.2135004488570114e-04 0.0000000000000000e+00  -2.4916013583473262e-03 -2.4236356019051436e-04 0.0000000000000000e+00  -3.8171458070398018e-03 -3.6246923754282957e-04 0.0000000000000000e+00  -5.2413428988974690e-03 -4.8061673862727366e-04 0.0000000000000000e+00  -5.2994497994349509e-03 -4.9278651198951550e-04 0.0000000000000000e+00  -5.2373889079605062e-03 -5.0505730381112887e-04 0.0000000000000000e+00  -3.4133140966630870e-03 -5.0990830036332698e-04 0.0000000000000000e+00  -1.6776623998216104e-03 -5.1667738418171519e-04 0.0000000000000000e+00  1.4635477928941297e-05 -5.2448273118864993e-04 0.0000000000000000e+00  1.7072798295369885e-03 -5.3326139770034622e-04 0.0000000000000000e+00  3.4439200731493577e-03 -5.4373685696935189e-04 0.0000000000000000e+00  5.2695241205215626e-03 -5.5745465930464450e-04 0.0000000000000000e+00  5.3319581723463806e-03 -5.3177293130316210e-04 0.0000000000000000e+00  5.2740684380698111e-03 -5.0522449708115854e-04 0.0000000000000000e+00  3.8415196185291678e-03 -3.8016425459628514e-04 0.0000000000000000e+00  2.5077537451638353e-03 -2.5378809834465270e-04 0.0000000000000000e+00  1.2381087055035476e-03 -1.2694944349782232e-04 0.0000000000000000e+00  0.0000000000000000e+00 0.0000000000000000e+00 0.0000000000000000e+00  0.0000000000000000e+00 0.0000000000000000e+00 0.0000000000000000e+00  -1.1624292116710431e-03 -6.5892305091563529e-05 0.0000000000000000e+00  -2.3532111882329861e-03 -1.2977847358462631e-04 0.0000000000000000e+00  -3.6013310550420765e-03 -1.8947307832832338e-04 0.0000000000000000e+00  -4.9370074466541427e-03 -2.4243086257245543e-04 0.0000000000000000e+00  -4.9895280615413155e-03 -5.0658441639778217e-04 0.0000000000000000e+00  -4.9350976154909883e-03 -7.7070143823321300e-04 0.0000000000000000e+00  -3.2238596342233587e-03 -7.5749965560129983e-04 0.0000000000000000e+00  -1.5909946015172549e-03 -7.5319382495740543e-04 0.0000000000000000e+00  3.0124338250293530e-06 -7.5695934386109224e-04 0.0000000000000000e+00  1.5968636183142219e-03 -7.6866690201563177e-04 0.0000000000000000e+00  3.2292278266591876e-03 -7.8886342735423143e-04 0.0000000000000000e+00  4.9395233897360892e-03 -8.1877306116117624e-04 0.0000000000000000e+00  4.9929661328654727e-03 -5.4155815344541136e-04 0.0000000000000000e+00  4.9400118539079706e-03 -2.6375696742754164e-04 0.0000000000000000e+00  3.6042206177875767e-03 -2.0505447738103537e-04 0.0000000000000000e+00  2.3554218303481916e-03 -1.3996262242910987e-04 0.0000000000000000e+00  1.1636165555005652e-03 -7.0921979783670992e-05 0.0000000000000000e+00  0.0000000000000000e+00 0.0000000000000000e+00 0.0000000000000000e+00  0.0000000000000000e+00 0.0000000000000000e+00 0.0000000000000000e+00  -9.8137753619037147e-04 -1.8459705919400785e-05 0.0000000000000000e+00  -1.9854584842567140e-03 -3.3960513757944024e-05 0.0000000000000000e+00  -3.0352717317122129e-03 -4.3425481935632140e-05 0.0000000000000000e+00  -4.1544879899452474e-03 -4.3544590500377994e-05 0.0000000000000000e+00  -4.1972664451014642e-03 -5.1913324483684401e-04 0.0000000000000000e+00  -4.1550789561585356e-03 -9.9452879794875932e-04 0.0000000000000000e+00  -2.7209352599881784e-03 -9.6951031499929307e-04 0.0000000000000000e+00  -1.3489049304344759e-03 -9.5742768970708534e-04 0.0000000000000000e+00  -7.9864744286048964e-06 -9.5767056266067823e-04 0.0000000000000000e+00  1.3324069570575935e-03 -9.7011945809632614e-04 0.0000000000000000e+00  2.7028337661211595e-03 -9.9514088341945092e-04 0.0000000000000000e+00  4.1342110736897718e-03 -1.0335789676802385e-03 0.0000000000000000e+00  4.1745331043908139e-03 -5.4695230083440661e-04 0.0000000000000000e+00  4.1310860354127630e-03 -5.9844987819161496e-05 0.0000000000000000e+00  3.0189128736010282e-03 -5.5503426907826561e-05 0.0000000000000000e+00  1.9751056731367226e-03 -4.1933195901105579e-05 0.0000000000000000e+00  9.7636549195053801e-04 -2.2420514431867139e-05 0.0000000000000000e+00  0.0000000000000000e+00 0.0000000000000000e+00 0.0000000000000000e+00  0.0000000000000000e+00 0.0000000000000000e+00 0.0000000000000000e+00  -7.0950811669229512e-04 1.7136936398586888e-05 0.0000000000000000e+00  -1.4347440048520534e-03 3.7713541801618987e-05 0.0000000000000000e+00  -2.1915842120584892e-03 6.5237865243725774e-05 0.0000000000000000e+00  -2.9961874754709282e-03 1.0334526412831234e-04 0.0000000000000000e+00  -3.0271668777637471e-03 -5.2957178249696420e-04 0.0000000000000000e+00  -2.9995918837387009e-03 -1.1622118402849751e-03 0.0000000000000000e+00  -1.9695757452159440e-03 -1.1297802932464468e-03 0.0000000000000000e+00  -9.8237674684341835e-04 -1.1123623175404319e-03 0.0000000000000000e+00  -1.6884510974601613e-05 -1.1095604271047393e-03 0.0000000000000000e+00  9.4782734311564109e-04 -1.1212847324002797e-03 0.0000000000000000e+00  1.9326588383944178e-03 -1.1477547813684441e-03 0.0000000000000000e+00  2.9586423644107985e-03 -1.1895003719779383e-03 0.0000000000000000e+00  2.9838511815457325e-03 -5.4869230657789007e-04 0.0000000000000000e+00  2.9521311704766738e-03 9.2515678915652854e-05 0.0000000000000000e+00  2.1601259801752324e-03 5.7132215609530455e-05 0.0000000000000000e+00  1.4145125754915855e-03 3.2325926762942531e-05 0.0000000000000000e+00  6.9961231816082663e-04 1.4449269759640444e-05 0.0000000000000000e+00  0.0000000000000000e+00 0.0000000000000000e+00 0.0000000000000000e+00  0.0000000000000000e+00 0.0000000000000000e+00 0.0000000000000000e+00  -3.7472368865719945e-04 3.8974714936221352e-05 0.0000000000000000e+00  -7.5760318549946803e-04 8.1596457236768490e-05 0.0000000000000000e+00  -1.1568496260410440e-03 1.3154912712899555e-04 0.0000000000000000e+00  -1.5807737785686336e-03 1.9258482716809624e-04 0.0000000000000000e+00  -1.5991155643357102e-03 -5.3741323190608173e-04 0.0000000000000000e+00  -1.5871808836862575e-03 -1.2670908892447154e-03 0.0000000000000000e+00  -1.0469660134088282e-03 -1.2299980100088572e-03 0.0000000000000000e+00  -5.2902974253077957e-04 -1.2088345474441534e-03 0.0000000000000000e+00  -2.2660019571230609e-05 -1.2033474419674956e-03 0.0000000000000000e+00  4.8277919661235110e-04 -1.2134690269376537e-03 0.0000000000000000e+00  9.9789881560457204e-04 -1.2393227778686273e-03 0.0000000000000000e+00  1.5333337933785534e-03 -1.2812113591533711e-03 0.0000000000000000e+00  1.5426523060269376e-03 -5.4721