<?xml version="1.0"?>
<VTKFile type="UnstructuredGrid"  version="0.1"  >
<UnstructuredGrid>
<Piece  NumberOfPoints="589" NumberOfCells="1080">
<Points>
<DataArray  type="Float64"  NumberOfComponents="3"  format="ascii">-9 0 0  -8 0 0  -7 0 0  -6 0 0  -5 0 0  -4 0 0  -3 0 0  -2 0 0  -1 0 0  0 0 0  1 0 0  2 0 0  3 0 0  4 0 0  5 0 0  6 0 0  7 0 0  8 0 0  9 0 0  -9 2 0  -8.000001391860273 1.999998391711727 0  -7.000002953285297 1.999996918627078 0  -6.000004994216478 1.999995682900153 0  -5.000008149372427 1.99999470455901 0  -4.00000553456398 1.999996213899205 0  -3.000002695055844 1.999997312340673 0  -2.000001084712647 1.999998197682777 0  -1.000000348362597 1.99999888627955 0  -1.534125262523858e-07 1.999999185627537 0  0.9999999959639335 1.999998992615624 0  2.000000574808542 1.999998351264516 0  3.000001918157906 1.999997529095853 0  4.000004157482621 1.999996575171836 0  5.000007260267266 1.999996002946018 0  6.000004411023098 1.999996401095263 0  7.000002595777713 1.999997316945472 0  8.000001221369127 1.999998573044993 0  9 2 0  -9 4 0  -8.000002105456019 3.99999624262209 0  -7.000003988542549 3.999992887834038 0  -6.000005531525448 3.999990336263626 0  -5.000006784034419 3.999988984900233 0  -4.000003355644474 3.999989521789457 0  -3.000000816688363 3.999992096494521 0  -1.999999630055182 3.999995437793765 0  -0.9999996188220127 3.999998084286728 0  -2.741301972681457e-07 3.999999160589594 0  0.9999990336276708 3.999998376216185 0  1.999998928369016 3.999996178361454 0  3.000000023297684 3.999993168319328 0  4.000002469194078 3.999990128791599 0  5.000005717124536 3.999989008036347 0  6.000004686035742 3.999990731395105 0  7.000003428199703 3.99999327290722 0  8.000001830572666 3.999996462681802 0  9 4 0  -9 6 0  -8.000003708517697 5.999992483223025 0  -7.000006384216428 5.999985644214607 0  -6.000007230739275 5.999980188836711 0  -5.000006006805725 5.999976813481286 0  -3.999999966692203 5.999980403736807 0  -2.999996882532862 5.999987954490431 0  -1.999997184594273 5.999995868991771 0  -0.9999989426440111 6.000000310856646 0  -7.413627811435282e-07 6.000001264793413 0  0.9999977254444357 5.999999840862205 0  1.999996746684983 5.999995917106635 0  2.999996777726448 5.999989352836868 0  3.99999865197037 5.999982562141753 0  5.00000382937858 5.99997927143249 0  6.000005868044489 5.999981789118404 0  7.000005619777759 5.999986635864879 0  8.000003371541812 5.999992962190146 0  9 6 0  -9 8 0  -8.000009443533493 7.999986012953042 0  -7.000016096534234 7.99997286628759 0  -6.000017211774827 7.999961721524849 0  -5.000010329423913 7.999954531312127 0  -3.999999487599506 7.999970894695378 0  -3.000000715634761 7.999990139320825 0  -2.000003984937473 7.999999675757696 0  -1.000003717322367 8.000001004345362 0  -8.508339533773941e-07 8.000001402853433 0  1.000001479472281 8.000002211840275 0  2.000001315243833 7.999998265635954 0  2.999997503949078 7.99999136629943 0  3.999996877736642 7.999975038116927 0  5.00000768405653 7.99995678778 0  6.000016197660827 7.99996353087333 0  7.000015811083553 7.999974080723177 0  8.000009405597799 7.999986615931447 0  9 8 0  -9 10 0  -8.000026339769978 9.999976181911432 0  -7.000047958669251 9.99995208189863 0  -6.000059182231087 9.999927437897634 0  -5.000052032808195 9.999902030834374 0  -4.000035471287429 9.999953344265759 0  -3.00003681466922 9.999997709619127 0  -2.000028905897034 9.99999097319863 0  -1.000013764868694 9.999988813400812 0  -2.348554429962495e-06 9.999988299507105 0  1.000008970681275 9.999988272812086 0  2.000023627735263 9.999987775798214 0  3.000037295913422 10.0000024670374 0  4.000037044380238 9.999960790476448 0  5.000055424388938 9.999906394742924 0  6.000062126167057 9.9999300470507 0  7.000050076861979 9.999953584980195 0  8.000027439315792 9.999976874779215 0  9 10 0  -9 12 0  -8.000062115478945 11.99996748007518 0  -7.000121395678718 11.99993347596206 0  -6.000174633074413 11.99989621087373 0  -5.000217878339781 11.99985320438054 0  -4.000209952224477 11.99994427815429 0  -3.000216460048892 12.00003445954426 0  -2.000148238774022 12.00002345780997 0  -1.000073852056351 12.0000174788884 0  2.825750695556293e-06 12.00001619246112 0  1.000080329845123 12.00001975997704 0  2.000157532710373 12.00002929767137 0  3.000231807493935 12.00004763709833 0  4.0002252891549 11.99995111668245 0  5.000230128960628 11.99985390532779 0  6.000183050349048 11.99989702396257 0  7.000126691194041 11.99993408378205 0  8.000064677327753 11.99996779321601 0  9 12 0  -9 14 0  -8.000109224312432 13.99996471660901 0  -7.000218991244284 13.99992791670326 0  -6.000330030956093 13.999887953484 0  -5.000443563112008 13.99984292931 0  -4.000445015816948 13.99994635877484 0  -3.000444562095038 14.00005119297624 0  -2.000292248456517 14.00003585437543 0  -1.000143110363011 14.00002737710827 0  4.696405441936222e-06 14.00002467209497 0  1.000152904965629 14.00002736943252 0  2.000303171234532 14.00003561703415 0  3.000456983626078 14.0000498807884 0  4.000459396732848 13.99994647777334 0  5.000459681507838 13.99984381417904 0  6.000341077555211 13.99988824241953 0  7.000225913120828 13.99992798786361 0  8.000112562111491 13.99996472429856 0  9 14 0  -9 16 0  -8.000154152079697 15.99996802018727 0  -7.000311478364019 15.99993501280107 0  -6.000475431287142 15.99989994304626 0  -5.000650048959974 15.99986178477851 0  -4.000656306259978 15.99994691288734 0  -3.000649707243983 16.00003152659835 0  -2.000423583184481 16.00002081401247 0  -1.000207055476158 16.00001419301385 0  4.960001036235901e-06 16.00001154833077 0  1.000217261343928 16.00001278371647 0  2.000434651079817 16.00001787764355 0  3.000662250519709 16.00002685792584 0  4.000669608132222 15.99994303552738 0  5.000663750657799 15.9998591450893 0  6.000485315541284 15.9998981957761 0  7.0003178624617 15.99993393064825 0  8.000157280017921 15.99996749971639 0  9 16 0  -9 18 0  -8.000186372008255 17.99997543420382 0  -7.000377439157535 17.99995035922113 0  -6.00057814171 17.99992428801325 0  -5.000793914252908 17.99989678393881 0  -4.000802925086314 17.99994633265533 0  -3.00079375780204 17.99999581490831 0  -2.00051656601674 17.99998941326743 0  -1.000252967428832 17.99998511010216 0  4.079331527014587e-06 17.99998291068528 0  1.000261278053765 17.99998277004873 0  2.000525322860057 17.9999845986774 0  3.000803221575529 17.99998824752044 0  4.000812883126256 17.99994037469201 0  5.000804106190815 17.9998926735455 0  6.000585591424456 17.9999214144176 0  7.000382307908265 17.99994853789816 0  8.000188775999309 17.99997455066282 0  9 18 0  -9 20 0  -8.000199801670167 19.99998488463715 0  -7.00040483926808 19.9999696905069 0  -6.000620541160361 19.99995436439253 0  -5.000852720083075 19.99993890529932 0  -4.000862647352179 19.99994547377393 0  -3.000852535217324 19.99995198866849 0  -2.000555212109581 19.99994962249812 0  -1.00027268937783 19.99994761673407 0  2.590050837672677e-06 19.99994604208363 0  1.000277925939902 19.99994488328658 0  2.000560612882658 19.99994404235264 0  3.000858193428371 19.99994333329515 0  4.000868441195419 19.9999387843258 0  5.000858606397216 19.99993435661245 0  6.000624908967967 19.99995110277387 0  7.000407726761044 19.9999675880041 0  8.00020123765136 19.99998385496611 0  8.99999999999792 20 0  -9 22 0  -8.000192279048704 21.99999464976684 0  -7.000389563985615 21.9999895493829 0  -6.000597002103452 21.99998497226406 0  -5.000820021844216 21.99998123926747 0  -4.000829461751276 21.99994433682091 0  -3.000819915015531 21.99990739329672 0  -2.000534691935492 21.99990839074581 0  -1.000263454797483 21.99990839979117 0  8.749164725924884e-07 21.99990751097385 0  1.000265186222026 21.99990572580992 0  2.000536363677851 21.99990295886712 0  3.000821472525268 21.99989903680607 0  4.000830907125193 21.99993792962843 0  5.000821425143844 21.99997690635755 0  6.000598134701936 21.99998183429716 0  7.000390354866025 21.9999875107032 0  8.000192684754241 21.99999364644781 0  9 22 0  -9 24 0  -8.000164724531572 24.00000341531116 0  -7.000333658122969 24.00000731491481 0  -6.000511106855611 24.00001220319121 0  -5.000701570143546 24.00001862464378 0  -4.000709527216779 23.99994306645142 0  -3.000701602288653 23.99986748864108 0  -2.000458261306748 23.99987111059703 0  -1.000226605924613 23.9998727724278 0  -7.657492839470272e-07 23.99987256337955 0  1.000224999053286 23.99987049344774 0  2.000456424222419 23.9998664935705 0  3.000699367793761 23.99986041579207 0  4.000706995718242 23.99993768363707 0  5.000698915338464 24.00001501852352 0  6.000509289374372 24.00000957143336 0  7.000332527081687 24.0000055956627 0  8.00016418284978 24.00000256636905 0  9 24 0  -9 26 0  -8.000120325186133 26.00001024369313 0  -7.000243672153871 26.00002112564755 0  -6.000373123600202 26.00003330113062 0  -5.000511881660977 26.00004745918584 0  -4.000517676169495 25.99994178261694 0  -3.000512102315985 25.9998361030004 0  -2.000335120540122 25.99984166944453 0  -1.000166510598946 25.99984462529701 0  -2.103586058968749e-06 25.99984505600248 0  1.000162187582902 25.99984297744311 0  2.000330445895567 25.99983833625688 0  3.000506828358826 25.99983101034331 0  4.000511980937184 25.99993792887059 0  5.000506010666621 26.00004489759648 0  6.000368961482745 26.00003142309822 0  7.000241010243791 26.00001989463042 0  8.000119027651332 26.00000963456991 0  9 26 0  -9 28 0  -8.000063828517938 28.00001451911227 0  -7.000129249110142 28.00002976225452 0  -6.000197883721229 28.00004646846667 0  -5.000271411720433 28.00006540649619 0  -4.000274626951866 27.99994058373544 0  -3.000271859124853 27.99981577285164 0  -2.000178523079857 27.99982266719733 0  -1.000089617508455 27.9998265754514 0  -2.976709657865054e-06 27.99982758175297 0  1.000083523859792 27.99982570820649 0  2.000172004745252 27.99982091457579 0  3.000264619602205 27.99981309900117 0  4.000266894690078 27.99993856909704 0  5.000263475655498 28.0000640764146 0  6.000192213412682 28.00004549075795 0  7.00012560111678 28.00002912013485 0  8.000062043770987 28.00001420099907 0 
[...]
<PointData  Vectors="f_44-2"> 
<DataArray  type="Float64"  Name="f_44-2"  NumberOfComponents="3" format="ascii">0.0000000000000000e+00 0.0000000000000000e+00 0.0000000000000000e+00  0.0000000000000000e+00 0.0000000000000000e+00 0.0000000000000000e+00  0.0000000000000000e+00 0.0000000000000000e+00 0.0000000000000000e+00  0.0000000000000000e+00 0.0000000000000000e+00 0.0000000000000000e+00  0.0000000000000000e+00 0.0000000000000000e+00 0.0000000000000000e+00  0.0000000000000000e+00 0.0000000000000000e+00 0.0000000000000000e+00  0.0000000000000000e+00 0.0000000000000000e+00 0.0000000000000000e+00  0.0000000000000000e+00 0.0000000000000000e+00 0.0000000000000000e+00  0.0000000000000000e+00 0.0000000000000000e+00 0.0000000000000000e+00  0.0000000000000000e+00 0.0000000000000000e+00 0.0000000000000000e+00  0.0000000000000000e+00 0.0000000000000000e+00 0.0000000000000000e+00  0.0000000000000000e+00 0.0000000000000000e+00 0.0000000000000000e+00  0.0000000000000000e+00 0.0000000000000000e+00 0.0000000000000000e+00  0.0000000000000000e+00 0.0000000000000000e+00 0.0000000000000000e+00  0.0000000000000000e+00 0.0000000000000000e+00 0.0000000000000000e+00  0.0000000000000000e+00 0.0000000000000000e+00 0.0000000000000000e+00  0.0000000000000000e+00 0.0000000000000000e+00 0.0000000000000000e+00  0.0000000000000000e+00 0.0000000000000000e+00 0.0000000000000000e+00  0.0000000000000000e+00 0.0000000000000000e+00 0.0000000000000000e+00  0.0000000000000000e+00 0.0000000000000000e+00 0.0000000000000000e+00  -3.0091230340784539e-05 -4.3142826519707528e-05 0.0000000000000000e+00  -6.3142920290621974e-05 -8.1182279846500841e-05 0.0000000000000000e+00  -1.0589744244170914e-04 -1.0999756788057309e-04 0.0000000000000000e+00  -1.7358863891530488e-04 -1.2785581473039045e-04 0.0000000000000000e+00  -1.0539562102125649e-04 -9.4847168743668339e-05 0.0000000000000000e+00  -3.4888198669110414e-05 -6.4720560143683245e-05 0.0000000000000000e+00  2.5414351485215042e-07 -3.6945319080573059e-05 0.0000000000000000e+00  7.7009731302653587e-06 -1.5002648664609824e-05 0.0000000000000000e+00  -2.1744457568626466e-06 -5.2911425437427487e-06 0.0000000000000000e+00  -1.3440407757928549e-05 -1.1637885587765210e-05 0.0000000000000000e+00  -1.0688723470383658e-05 -3.2412303982830390e-05 0.0000000000000000e+00  1.6424802278337457e-05 -5.7917971360035072e-05 0.0000000000000000e+00  7.1047457213650498e-05 -8.5106875175837136e-05 0.0000000000000000e+00  1.4950734051539131e-04 -9.5717609217207936e-05 0.0000000000000000e+00  8.9881628758904211e-05 -9.1609745714040414e-05 0.0000000000000000e+00  5.3238159763654652e-05 -7.0611049591189545e-05 0.0000000000000000e+00  2.5346958745945316e-05 -3.8207547596454132e-05 0.0000000000000000e+00  0.0000000000000000e+00 0.0000000000000000e+00 0.0000000000000000e+00  0.0000000000000000e+00 0.0000000000000000e+00 0.0000000000000000e+00  -4.8340372153319359e-05 -1.0669839441608210e-04 0.0000000000000000e+00  -8.7474438290553153e-05 -1.9926063800018067e-04 0.0000000000000000e+00  -1.1204793415517173e-04 -2.6382299101969104e-04 0.0000000000000000e+00  -1.2321757022888417e-04 -2.8713162291343653e-04 0.0000000000000000e+00  -2.5351414410142234e-05 -2.7185864811901910e-04 0.0000000000000000e+00  4.1067904487324947e-05 -1.8869294635671279e-04 0.0000000000000000e+00  6.0185036978279129e-05 -8.0646391159506559e-05 0.0000000000000000e+00  3.8245528567610095e-05 6.1859135479288195e-06 0.0000000000000000e+00  -6.1452963078162989e-06 4.1479850377217719e-05 0.0000000000000000e+00  -5.1633859516883230e-05 1.5054809956574673e-05 0.0000000000000000e+00  -7.7306389082758818e-05 -5.7339138907276870e-05 0.0000000000000000e+00  -6.2324552807959370e-05 -1.5536915473622552e-04 0.0000000000000000e+00  -4.8335237095397363e-07 -2.5345511543819072e-04 0.0000000000000000e+00  9.2761427527809963e-05 -2.8490156160123855e-04 0.0000000000000000e+00  8.7833806962369469e-05 -2.5078237390113880e-04 0.0000000000000000e+00  7.1466928546851059e-05 -1.8684056270168434e-04 0.0000000000000000e+00  4.0516586847720649e-05 -9.9630487817954413e-05 0.0000000000000000e+00  0.0000000000000000e+00 0.0000000000000000e+00 0.0000000000000000e+00  0.0000000000000000e+00 0.0000000000000000e+00 0.0000000000000000e+00  -1.0341394541873324e-04 -2.2679535931183979e-04 0.0000000000000000e+00  -1.7004830808568016e-04 -4.2933568131027841e-04 0.0000000000000000e+00  -1.7181423557866205e-04 -5.8266072273092625e-04 0.0000000000000000e+00  -1.0063918546953041e-04 -6.6281725774193067e-04 0.0000000000000000e+00  8.7927030811899568e-05 -5.3998874581708727e-04 0.0000000000000000e+00  1.7473306478294655e-04 -2.8422792360243939e-04 0.0000000000000000e+00  1.4319611794366260e-04 -1.6293445505205200e-05 0.0000000000000000e+00  6.1636408448335312e-05 1.3275453303518387e-04 0.0000000000000000e+00  -2.0813291368455942e-05 1.6319945372901391e-04 0.0000000000000000e+00  -9.4485969077935100e-05 1.1570145306702884e-04 0.0000000000000000e+00  -1.4992245645797258e-04 -1.6091101975203230e-05 0.0000000000000000e+00  -1.6948567722763186e-04 -2.3845977495189262e-04 0.0000000000000000e+00  -1.2400005158357132e-04 -4.6850590639831434e-04 0.0000000000000000e+00  3.5475163349670055e-05 -5.8104402625684909e-04 0.0000000000000000e+00  1.3154327386779069e-04 -5.2924302026863290e-04 0.0000000000000000e+00  1.4802891285482585e-04 -3.9614015359011915e-04 0.0000000000000000e+00  9.3950053933999783e-05 -2.1073215309206798e-04 0.0000000000000000e+00  0.0000000000000000e+00 0.0000000000000000e+00 0.0000000000000000e+00  0.0000000000000000e+00 0.0000000000000000e+00 0.0000000000000000e+00  -3.0560753227852188e-04 -4.4389863583722681e-04 0.0000000000000000e+00  -5.1209133598978775e-04 -8.5625715394520687e-04 0.0000000000000000e+00  -5.2333835089354982e-04 -1.1941582818897360e-03 0.0000000000000000e+00  -2.5693137388146860e-04 -1.3867794389528705e-03 0.0000000000000000e+00  1.0570104420572993e-04 -8.2266259934279842e-04 0.0000000000000000e+00  4.0669071213518779e-05 -1.5963062075589077e-04 0.0000000000000000e+00  -9.3709503333666203e-05 1.6380961536977722e-04 0.0000000000000000e+00  -1.0425941804901448e-04 2.0107070743359762e-04 0.0000000000000000e+00  -2.2640850612616750e-05 2.1181602819284856e-04 0.0000000000000000e+00  3.9224487838457242e-05 2.4340442996627197e-04 0.0000000000000000e+00  1.6613637037712940e-05 1.1002934857737450e-04 0.0000000000000000e+00  -1.3638975256502603e-04 -1.1761305325324611e-04 0.0000000000000000e+00  -1.8556697313035694e-04 -6.7935696117232597e-04 0.0000000000000000e+00  1.6826433864513562e-04 -1.3122414825780021e-03 0.0000000000000000e+00  4.9357331122340357e-04 -1.1328918178414031e-03 0.0000000000000000e+00  5.0683793082076595e-04 -8.1464530999694187e-04 0.0000000000000000e+00  3.0685858869361417e-04 -4.2311881943979911e-04 0.0000000000000000e+00  0.0000000000000000e+00 0.0000000000000000e+00 0.0000000000000000e+00  0.0000000000000000e+00 0.0000000000000000e+00 0.0000000000000000e+00  -9.0423044253183931e-04 -7.8710876324515871e-04 0.0000000000000000e+00  -1.6350499834258949e-03 -1.5809259336003639e-03 0.0000000000000000e+00  -1.9854112773149859e-03 -2.3866404733341533e-03 0.0000000000000000e+00  -1.6670074519723242e-03 -3.2059611253059225e-03 0.0000000000000000e+00  -1.0926748402673959e-03 -1.3872819822527949e-03 0.0000000000000000e+00  -1.1835050318730182e-03 1.7794387028761935e-04 0.0000000000000000e+00  -9.4948737369499633e-04 -8.9327805932109088e-05 0.0000000000000000e+00  -4.4533393388562396e-04 -1.7500441138287282e-04 0.0000000000000000e+00  -7.3969825878651325e-05 -1.9579624497095561e-04 0.0000000000000000e+00  2.9378762997593139e-04 -1.9433902385063362e-04 0.0000000000000000e+00  7.8119147919894884e-04 -2.0432345263666289e-04 0.0000000000000000e+00  1.2129155009041365e-03 3.4779902229927710e-04 0.0000000000000000e+00  1.1651373773453675e-03 -1.1178549574394057e-03 0.0000000000000000e+00  1.8095503575586847e-03 -3.0486440225478730e-03 0.0000000000000000e+00  2.1036459051051166e-03 -2.2920228984246961e-03 0.0000000000000000e+00  1.7185376999009616e-03 -1.5262108304529699e-03 0.0000000000000000e+00  9.4722745859818582e-04 -7.6183629847206412e-04 0.0000000000000000e+00  0.0000000000000000e+00 0.0000000000000000e+00 0.0000000000000000e+00  0.0000000000000000e+00 0.0000000000000000e+00 0.0000000000000000e+00  -2.1962008836774534e-03 -1.1033745720040664e-03 0.0000000000000000e+00  -4.2793613300023126e-03 -2.2578202969435876e-03 0.0000000000000000e+00  -6.1215001851439351e-03 -3.5244088198798313e-03 0.0000000000000000e+00  -7.5642258221619817e-03 -4.9883517927446714e-03 0.0000000000000000e+00  -7.2687272576858648e-03 -1.6745051816253911e-03 0.0000000000000000e+00  -7.5299773519309906e-03 1.6072073380218534e-03 0.0000000000000000e+00  -5.1933464243594119e-03 1.2085201767991658e-03 0.0000000000000000e+00  -2.5921331082383518e-03 9.9037602239108601e-04 0.0000000000000000e+00  1.1033662783475669e-04 9.4356837149278520e-04 0.0000000000000000e+00  2.8419021523280914e-03 1.0746127485310722e-03 0.0000000000000000e+00  5.5423650185280260e-03 1.4228093750875697e-03 0.0000000000000000e+00  8.0924117700392224e-03 2.0868741143628307e-03 0.0000000000000000e+00  7.8218102551036658e-03 -1.4176842925514514e-03 0.0000000000000000e+00  8.0079868580931694e-03 -4.9499910480490291e-03 0.0000000000000000e+00  6.4298868925092819e-03 -3.4876806767799033e-03 0.0000000000000000e+00  4.4747186228589111e-03 -2.2318787948301015e-03 0.0000000000000000e+00  2.2910617882793533e-03 -1.0903086078961788e-03 0.0000000000000000e+00  0.0000000000000000e+00 0.0000000000000000e+00 0.0000000000000000e+00  0.0000000000000000e+00 0.0000000000000000e+00 0.0000000000000000e+00  -3.9397326249213521e-03 -1.2152339641816796e-03 0.0000000000000000e+00  -7.8868036180450695e-03 -2.4859336290788511e-03 0.0000000000000000e+00  -1.1853615216178700e-02 -3.8724547450864817e-03 0.0000000000000000e+00  -1.5866452627987374e-02 -5.4447127380380326e-03 0.0000000000000000e+00  -1.5903545555600571e-02 -1.5715206234481588e-03 0.0000000000000000e+00  -1.5923461883883216e-02 2.3509760647633967e-03 0.0000000000000000e+00  -1.0496661793052571e-02 1.7844287809659237e-03 0.0000000000000000e+00  -5.1444624133571417e-03 1.4706111562412453e-03 0.0000000000000000e+00  1.7837865510060929e-04 1.3717073218557946e-03 0.0000000000000000e+00  5.5152679074280493e-03 1.4751785156585657e-03 0.0000000000000000e+00  1.0906815031818373e-02 1.7867942168849557e-03 0.0000000000000000e+00  1.6385425727306245e-02 2.3236980110942665e-03 0.0000000000000000e+00  1.6436707880565071e-02 -1.5528462312418155e-03 0.0000000000000000e+00  1.6461870016872313e-02 -5.4048035715085338e-03 0.0000000000000000e+00  1.2262974883538636e-02 -3.8568371370311782e-03 0.0000000000000000e+00  8.1440193978789249e-03 -2.4803413862017763e-03 0.0000000000000000e+00  4.0639919282567044e-03 -1.2135821325784777e-03 0.0000000000000000e+00  0.0000000000000000e+00 0.0000000000000000e+00 0.0000000000000000e+00  0.0000000000000000e+00 0.0000000000000000e+00 0.0000000000000000e+00  -5.6531034582859522e-03 -1.1051529972482589e-03 0.0000000000000000e+00  -1.1413959159253965e-02 -2.2505965796122559e-03 0.0000000000000000e+00  -1.7399501205594997e-02 -3.4773070936363155e-03 0.0000000000000000e+00  -2.3745928340154293e-02 -4.8268824633137253e-03 0.0000000000000000e+00  -2.3966968151208239e-02 -1.5187546842524145e-03 0.0000000000000000e+00  -2.3752113608930859e-02 1.7714892170845047e-03 0.0000000000000000e+00  -1.5503647176885753e-02 1.3500607797658718e-03 0.0000000000000000e+00  -7.5802778575800745e-03 1.0917051768090929e-03 0.0000000000000000e+00  1.9024154742039494e-04 9.9080801789699219e-04 0.0000000000000000e+00  7.9709331034599554e-03 1.0436192144866255e-03 0.0000000000000000e+00  1.5924994341563335e-02 1.2500778165533222e-03 0.0000000000000000e+00  2.4226068677304084e-02 1.6129935074547040e-03 0.0000000000000000e+00  2.4469648996387677e-02 -1.6521923250440514e-03 0.0000000000000000e+00  2.4264134195209123e-02 -4.9202582125996543e-03 0.0000000000000000e+00  1.7773941326268423e-02 -3.5398160658317436e-03 0.0000000000000000e+00  1.1656176155892678e-02 -2.2896488843977695e-03 0.0000000000000000e+00  5.7719057290981004e-03 -1.1240372453004200e-03 0.0000000000000000e+00  0.0000000000000000e+00 0.0000000000000000e+00 0.0000000000000000e+00  0.0000000000000000e+00 0.0000000000000000e+00 0.0000000000000000e+00  -6.9347489525241187e-03 -8.3389390133563161e-04 0.0000000000000000e+00  -1.4041077226511720e-02 -1.6901180129380727e-03 0.0000000000000000e+00  -2.1499447127413491e-02 -2.5905819771387729e-03 0.0000000000000000e+00  -2.9508214873303601e-02 -3.5561349860945917e-03 0.0000000000000000e+00  -2.9844635412913378e-02 -1.5074719041663011e-03 0.0000000000000000e+00  -2.9516946668794310e-02 5.3823741376019961e-04 0.0000000000000000e+00  -1.9212835122293614e-02 2.6380951018595950e-04 0.0000000000000000e+00  -9.4059170556225740e-03 8.3483460713579944e-05 0.0000000000000000e+00  1.6135410744417923e-04 -4.4120560835754120e-06 0.0000000000000000e+00  9.7341998870242273e-03 -2.0302637580772315e-06 0.0000000000000000e+00  1.9557510744418440e-02 8.8006924723692175e-05 0.0000000000000000e+00  2.9887694808409498e-02 2.6216718514678061e-04 0.0000000000000000e+00  3.0235474962376340e-02 -1.7289062160898178e-03 0.0000000000000000e+00  2.9909341396056301e-02 -3.7143121877860797e-03 0.0000000000000000e+00  2.1792573546464120e-02 -2.7015212304030995e-03 0.0000000000000000e+00  1.4232700028253093e-02 -1.7606271521959605e-03 0.0000000000000000e+00  7.0294153516969006e-03 -8.6815855545297003e-04 0.0000000000000000e+00  0.0000000000000000e+00 0.0000000000000000e+00 0.0000000000000000e+00  0.0000000000000000e+00 0.0000000000000000e+00 0.0000000000000000e+00  -7.5293130987091183e-03 -4.7333365565023792e-04 0.0000000000000000e+00  -1.5258524334600369e-02 -9.5267220221303191e-04 0.0000000000000000e+00  -2.3395190109285646e-02 -1.4433446265851330e-03 0.0000000000000000e+00  -3.2162214468770940e-02 -1.9492999623941950e-03 0.0000000000000000e+00  -3.2546783993612993e-02 -1.5102918612102522e-03 0.0000000000000000e+00  -3.2165136751432830e-02 -1.0740810160079339e-03 0.0000000000000000e+00  -2.0936161783877884e-02 -1.1985092637968472e-03 0.0000000000000000e+00  -1.0274383807128180e-02 -1.2942831465069451e-03 0.0000000000000000e+00  1.1010408189734904e-04 -1.3603852125265621e-03 0.0000000000000000e+00  1.0496827888130873e-02 -1.3979596406126821e-03 0.0000000000000000e+00  2.1165155080597992e-02 -1.4102471468331608e-03 0.0000000000000000e+00  3.2404530722737301e-02 -1.4027679925242371e-03 0.0000000000000000e+00  3.2793058440300026e-02 -1.7704330590113055e-03 0.0000000000000000e+00  3.2413137577694831e-02 -2.1339349418464416e-03 0.0000000000000000e+00  2.3580985901716141e-02 -1.5756077615615061e-03 0.0000000000000000e+00  1.5381192971819264e-02 -1.0378918544369036e-03 0.0000000000000000e+00  7.5902764453893079e-03 -5.1506026197262189e-04 0.0000000000000000e+00  -3.8381483204566487e-11 3.3975990580629437e-10 0.0000000000000000e+00  0.0000000000000000e+00 0.0000000000000000e+00 0.0000000000000000e+00  -7.3235950622504362e-03 -8.8776483182540113e-05 0.0000000000000000e+00  -1.4844688613732289e-02 -1.6990719356562784e-04 0.0000000000000000e+00  -2.2767053158977084e-02 -2.3499235588207335e-04 0.0000000000000000e+00  -3.1306779043041702e-02 -2.7411133356773626e-04 0.0000000000000000e+00  -3.1682807360278398e-02 -1.5292257466129027e-03 0.0000000000000000e+00  -3.1307311839029767e-02 -2.7869332018286251e-03 0.0000000000000000e+00  -2.0393551308062738e-02 -2.7753591069049183e-03 0.0000000000000000e+00  -1.0035011283707361e-02 -2.7906356399030295e-03 0.0000000000000000e+00  4.9904427342841122e-05 -2.8303667362101124e-03 0.0000000000000000e+00  1.0134371227493635e-02 -2.8949466534673334e-03 0.0000000000000000e+00  2.0491422574802041e-02 -2.9875052267068877e-03 0.0000000000000000e+00  3.1402229331124985e-02 -3.1139618920342661e-03 0.0000000000000000e+00  3.1774666903531291e-02 -1.7871346922456637e-03 0.0000000000000000e+00  3.1397594975739775e-02 -4.5739987608785904e-04 0.0000000000000000e+00  2.2837499706711936e-02 -3.6727633291922874e-04 0.0000000000000000e+00  1.4892687003907588e-02 -2.5564607545192764e-04 0.0000000000000000e+00  7.3478700973032040e-03 -1.3091349530444630e-04 0.0000000000000000e+00  0.0000000000000000e+00 0.0000000000000000e+00 0.0000000000000000e+00  0.0000000000000000e+00 0.0000000000000000e+00 0.0000000000000000e+00  -6.3271952338019403e-03 2.6518952219719189e-04 0.0000000000000000e+00  -1.2824305315464229e-02 5.4866293661404067e-04 0.0000000000000000e+00  -1.9667037362299501e-02 8.6947283861579946e-04 0.0000000000000000e+00  -2.7039435953805941e-02 1.2482253209536455e-03 0.0000000000000000e+00  -2.7362344726186684e-02 -1.5605435231272936e-03 0.0000000000000000e+00  -2.7039713464799792e-02 -4.3712216171278035e-03 0.0000000000000000e+00  -1.7632777610270895e-02 -4.2449437576730989e-03 0.0000000000000000e+00  -8.7023953703008802e-03 -4.1892986415310481e-03 0.0000000000000000e+00  -8.4346742107977773e-06 -4.2010825297509932e-03 0.0000000000000000e+00  8.6829691577558453e-03 -4.2801581732338171e-03 0.0000000000000000e+00  1.7605542937824362e-02 -4.4293300606277810e-03 0.0000000000000000e+00  2.6999081852013079e-02 -4.6544234696417807e-03 0.0000000000000000e+00  2.7310700926291943e-02 -1.7830933904170528e-03 0.0000000000000000e+00  2.6982750752463942e-02 1.0904967402648614e-03 0.0000000000000000e+00  1.9630548295122716e-02 7.5499960373247299e-04 0.0000000000000000e+00  1.2802800442442945e-02 4.7416875010268246e-04 0.0000000000000000e+00  6.3170475396943006e-03 2.2848939839716239e-04 0.0000000000000000e+00  0.0000000000000000e+00 0.0000000000000000e+00 0.0000000000000000e+00  0.0000000000000000e+00 0.0000000000000000e+00 0.0000000000000000e+00  -4.6483919799260500e-03 5.4602635318354927e-04 0.0000000000000000e+00  -9.4211866138362490e-03 1.1178783913993193e-03 0.0000000000000000e+00  -1.4446030837966512e-02 1.7421539725972592e-03 0.0000000000000000e+00  -1.9856755850665049e-02 2.4470229333972571e-03 0.0000000000000000e+00  -2.0093077695875095e-02 -1.6003708241822134e-03 0.0000000000000000e+00  -1.9858671798987110e-02 -5.6489917247664681e-03 0.0000000000000000e+00  -1.2967996557728786e-02 -5.4326370314224798e-03 0.0000000000000000e+00  -6.4252728818565237e-03 -5.3185037510753699e-03 0.0000000000000000e+00  -5.6436186309123531e-05 -5.3028927444669924e-03 0.0000000000000000e+00  6.3082969679239768e-03 -5.3852543843542905e-03 0.0000000000000000e+00  1.2838660147435019e-02 -5.5677529891870340e-03 0.0000000000000000e+00  1.9708242888160962e-02 -5.8562091470939822e-03 0.0000000000000000e+00  1.9925933492877187e-02 -1.7627498860048783e-03 0.0000000000000000e+00  1.9681702958601170e-02 2.3322518885020528e-03 0.0000000000000000e+00  1.4323462359163520e-02 1.6586040699677785e-03 0.0000000000000000e+00  9.3435334731587025e-03 1.0633779133117185e-03 0.0000000000000000e+00  4.6107469453671749e-03 5.1913621612479310e-04 0.0000000000000000e+00  0.0000000000000000e+00 0.0000000000000000e+00 0.0000000000000000e+00  0.0000000000000000e+00 0.0000000000000000e+00 0.0000000000000000e+00  -2.4711075083251226e-03 7.2357145818040540e-04 0.0000000000000000e+00  -5.0082570454619045e-03 1.4774033527910713e-03 0.0000000000000000e+00  -7.6791310688755594e-03 2.2925297308916508e-03 0.0000000000000000e+00  -1.0554526821947486e-02 3.2015358558242788e-03 0.0000000000000000e+00  -1.0682034372547559e-02 -1.6446128922912072e-03 0.0000000000000000e+00  -1.0559646439025457e-02 -6.4912274148347651e-03 0.0000000000000000e+00  -6.9140124881818194e-03 -6.2116306749729726e-03 0.0000000000000000e+00  -3.4537862965660446e-03 -6.0535947815750944e-03 0.0000000000000000e+00  -8.7926878970682315e-05 -6.0130583157681737e-03 0.0000000000000000e+00  3.2728663842895790e-03 -6.0889316147748123e-03 0.0000000000000000e+00  6.7177244423730067e-03 -6.2831828104042515e-03 0.0000000000000000e+00  1.0337692837267091e-02 -6.6008958396823782e-03 0.0000000000000000e+00  1.0439931981406601e-02 -1.7302975541409894e-03 0.0000000000000