<?xml version="1.0"?>
<VTKFile type="UnstructuredGrid"  version="0.1"  >
<UnstructuredGrid>
<Piece  NumberOfPoints="589" NumberOfCells="1080">
<Points>
<DataArray  type="Float64"  NumberOfComponents="3"  format="ascii">-9 0 0  -8 0 0  -7 0 0  -6 0 0  -5 0 0  -4 0 0  -3 0 0  -2 0 0  -1 0 0  0 0 0  1 0 0  2 0 0  3 0 0  4 0 0  5 0 0  6 0 0  7 0 0  8 0 0  9 0 0  -9 2 0  -8.000007293957456 1.99998917119784 0  -7.000015297343094 1.99997966467811 0  -6.000025672905346 1.999972552695735 0  -5.00004221736044 1.999968301280202 0  -4.000025166056062 1.99997636087423 0  -3.000007611700763 1.999983933591375 0  -1.999999002204299 1.999991010849648 0  -0.9999974623915736 1.999996604828992 0  -3.407219650130354e-07 1.99999906868636 0  0.999996450155857 1.99999740276373 0  1.999996873803145 1.999992020365456 0  3.000003590211379 1.999985424395104 0  4.000017413896927 1.999978394723061 0  5.000037389610743 1.999975623859589 0  6.000022522035447 1.999976611441344 0  7.000013378406827 1.999981947988403 0  8.000006384645754 1.999990225106094 0  9 2 0  -9 4 0  -8.000011750041363 3.999973053931881 0  -7.00002110600523 3.999949751704504 0  -6.000026670158625 3.999933663394329 0  -5.000028734541913 3.999928195031213 0  -4.00000399708949 3.999931969120242 0  -2.999987349626892 3.99995320199089 0  -1.999982880535659 3.999980820914101 0  -0.9999889797861268 4.000003037042596 0  -8.380024237280813e-07 4.00001202361931 0  0.9999870389777356 4.000005120813903 0  1.999980042857289 3.999986379751034 0  2.99998356279545 3.999961013873111 0  3.999999230613117 3.999935563289696 0  5.000023102599116 3.999927226072075 0  6.000022148134366 3.999935827451013 0  7.000018157170365 3.999952134396185 0  8.000010332556693 3.999974459836386 0  9 4 0  -9 6 0  -8.000025781600332 5.999942364547697 0  -7.000042081846805 5.999890986059172 0  -6.000041666515604 5.999852297181158 0  -5.000022462302961 5.999832464448053 0  -3.999974333227914 5.999863934227655 0  -2.999952381145224 5.999929570490797 0  -1.999960884402132 5.999998347318424 0  -0.9999822524187532 6.000036579199241 0  -3.856226921047413e-06 6.000044295630665 0  0.9999767630096416 6.000031989246152 0  1.99996204677428 5.999997901951766 0  2.999956612440081 5.999940317123958 0  3.999968033091428 5.999880656774223 0  5.000008954238782 5.999851248855625 0  6.000033920190764 5.999864223948062 0  7.00003826966675 5.999898249983416 0  8.000024310967216 5.999945838676092 0  9 6 0  -9 8 0  -8.000077729090808 7.999886662234059 0  -7.000129914336787 7.999781478017091 0  -6.000131815138658 7.999695522206555 0  -5.000062262671277 7.999647050150674 0  -3.999969264716666 7.999792083208955 0  -2.99998637090924 7.999962448235941 0  -2.000021218152563 8.000045422856161 0  -1.000024128691326 8.000054827952075 0  -3.28704707422984e-06 8.000057554772589 0  1.00001237217448 8.000065871013838 0  2.00000615924467 8.000031402642238 0  2.999966052267902 7.999972685895052 0  3.999952630494814 7.99982714930228 0  5.000043763568572 7.999662920255127 0  6.000128146770627 7.999708438644499 0  7.000131601819652 7.999790131730739 0  8.000079687273271 7.999890939673929 0  9 8 0  -9 10 0  -8.000231776671333 9.999798406389697 0  -7.000418804551047 9.99959515020703 0  -6.000507700091879 9.999388967054697 0  -5.000424104206494 9.999179539227407 0  -4.000276710284619 9.999647726699932 0  -3.000300804612387 10.0000502440778 0  -2.000240913613206 9.9999807611891 0  -1.000111317232419 9.999958465094611 0  -1.588996551670456e-05 9.999953027900016 0  1.000078714579308 9.999953465275684 0  2.000204513361258 9.999951020361751 0  3.000315472108281 10.00009527862171 0  4.000301891137379 9.999715087694272 0  5.000468733050398 9.999213409201259 0  6.000545925531744 9.999408078222622 0  7.000446311242363 9.999605623135325 0  8.000246088389796 9.999803074914626 0  9 10 0  -9 12 0  -8.000564470578263 11.99971693037115 0  -7.001099654690635 11.99942074880428 0  -6.001572449076643 11.99909577179528 0  -5.001941789336827 11.99872012530217 0  -4.001866513464056 11.99957375990668 0  -3.001934733893949 12.00041889029684 0  -2.00132974087287 12.000316322457 0  -1.000656791743903 12.00026062335014 0  4.193001096199714e-05 12.00024941801586 0  1.00074770694556 12.00028443547906 0  2.001444810367587 12.0003759270659 0  3.002102002894017 12.00054958786993 0  4.0020298737571 11.99963764879127 0  5.002077743066373 11.99871818362276 0  6.001670143160095 11.99909649847726 0  7.001163060565641 11.99942166168508 0  8.000595710414537 11.99971742512435 0  9 12 0  -9 14 0  -8.001013590242838 13.99968804858586 0  -7.002028911050828 13.99936178267826 0  -6.003049042879518 13.99900562466859 0  -5.004080532087024 13.99860152001057 0  -4.004091262887981 13.99959931562328 0  -3.004097511210135 14.00060975068847 0  -2.002691751169449 14.00046467898397 0  -1.001305954031046 14.00038504515876 0  7.169522898228823e-05 14.00036113559397 0  1.001452443986343 14.00038977859912 0  2.002846749260623 14.00047254363118 0  3.004262891094192 14.00061394021351 0  4.004274149384292 13.99960183463685 0  5.004280146264861 13.99859603759519 0  6.003190561166153 13.99899809130818 0  7.002119867276881 13.99935563762677 0  8.001058142061064 13.99968471478524 0  9 14 0  -9 16 0  -8.00145480508219 15.9997165222679 0  -7.002937305156295 15.99942259125965 0  -6.004477602770833 15.99910757427231 0  -5.006110702310177 15.99876064949011 0  -4.006168836661996 15.99961218635147 0  -3.006114150376483 16.00045921136765 0  -2.003976452106508 16.00035207241795 0  -1.001923640488717 16.00028720484644 0  8.910209979936111e-05 16.00026321599952 0  1.002104135028091 16.00027919749343 0  2.004163833996285 16.0003351965167 0  3.006313290015591 16.00043200099906 0  4.006374896006778 15.9995755025978 0  5.006321032322346 15.99871835343201 0  6.004632490710712 15.99907809815677 0  7.003039028021178 15.99940375933855 0  8.001505184611627 15.99970731374174 0  9 16 0  -9 18 0  -8.001784193727367 17.99978683449979 0  -7.003612659325118 17.9995678459359 0  -6.005531972204208 17.9993373198542 0  -5.007593291239288 17.99908978319361 0  -4.007681008972872 17.99961521800043 0  -3.0075966774923 18.00013997814485 0  -2.004924869813181 18.00007103190469 0  -1.002382574923906 18.00002652019671 0  9.728648111215064e-05 18.00000607781821 0  1.002578540673337 18.00000919406771 0  2.00512492371908 18.00003524743979 0  3.007803200355389 18.00008337932103 0  4.007892570212285 17.99955585022897 0  5.007807459130577 17.9990298835536 0  6.005690767739686 17.99929468496999 0  7.003717616681671 17.99954045936447 0  8.001836395594767 17.99977344021685 0  9 18 0  -9 20 0  -8.001935535345364 19.99988042271402 0  -7.00392272612445 19.99975927527781 0  -6.006015198318161 19.99963516291484 0  -5.008270518101509 19.99950703540504 0  -4.008370560249145 19.99961535451799 0  -3.008271959584701 19.99972292566972 0  -2.005358902200844 19.99969272780379 0  -1.00259351519043 19.9996700483456 0  9.982561695940879e-05 19.99965519428244 0  1.002794006082456 19.99964791488948 0  2.005561876425223 19.999647421266 0  3.008478960800784 19.99965233848782 0  4.008579495479774 19.99954608390772 0  5.00848029307123 19.99944089585669 0  6.006171454260195 19.99958744838983 0  7.004026374334248 19.99972836450722 0  8.001987200831604 19.99986523666964 0  8.999999999993157 19.9999999999934 0  -9 22 0  -8.001879368721601 21.99998027293726 0  -7.003809780793191 21.99996255963087 0  -6.005843877092159 21.99994906941122 0  -5.00803747991784 21.99994240658644 0  -4.008135399302835 21.99961148135024 0  -3.008038428874345 21.9992797189693 0  -2.005205965055957 21.99928450743963 0  -1.002518017393267 21.99928244714314 0  9.90002990346027e-05 21.99927418425767 0  1.002716447452348 21.99925965125392 0  2.005405660992579 21.99923808048234 0  3.008240161573835 21.99920799114778 0  4.008336750573496 21.99954295757744 0  5.008237924180261 21.99987852584398 0  6.005993808492899 21.99990274453951 0  7.003909528438238 21.99993242696013 0  8.001929175099679 21.99996543170435 0  9 22 0  -9 24 0  -8.001618118483799 24.0000720685034 0  -7.003280171974114 24.00014895019352 0  -6.005031325371024 24.00023565816298 0  -5.006919128348499 24.00033761769398 0  -4.007003559091818 23.99960385979582 0  -3.006920668042993 23.99886934550926 0  -2.004478564090595 23.99890353751875 0  -1.002160461428619 23.99891951976408 0  9.654283464846022e-05 23.9989181165975 0  1.00235366497111 23.99889938996952 0  2.004672105058061 23.99886264368713 0  3.007114719029312 23.99880641828877 0  4.007195370783271 23.99954473225234 0  5.007108770109417 24.00028338458295 0  6.005173659925303 24.00019616336647 0  7.003375095317105 24.000123182572 0  8.001665582779552 24.00005935371152 0  9 24 0  -9 26 0  -8.001180092939755 26.00014462968996 0  -7.002392117931421 26.00029604626463 0  -6.003668874643761 26.00046123826607 0  -5.005044734808046 26.00064761151827 0  -4.005107038845449 25.99959302800373 0  -3.005047592457481 25.99853785676143 0  -2.003258625220319 25.99859507708688 0  -1.00156008325852 25.99862580825751 0  9.376191101109395e-05 25.99863101254157 0  1.001747492629042 25.99861086770899 0  2.003445675463121 25.99856476795206 0  3.005233993127888 25.99849132153117 0  4.005289867364962 25.99954979842176 0  5.00522448211488 26.00060841726349 0  6.003804187713105 26.00043262019514 0  7.002482549795345 26.00027733780661 0  8.001225367842736 26.00013538634709 0  9 26 0  -9 28 0  -8.000613137476106 28.0001900645036 0  -7.001242945023928 28.00038805276539 0  -6.001906584170379 28.00060209245867 0  -5.002621973204315 28.00084072545889 0  -4.002656254611539 27.99958000911451 0  -3.002626402183945 27.99831898361203 0  -2.001680380793914 27.99839223150984 0  -1.000782455399729 27.99843385695065 0  9.159024236805458e-05 27.9984449503775 0  1.000965366099456 27.99842580158658 0  2.001862463553841 27.99837590159642 0  3.00280704380185 27.99829394149302 0  4.002832520144421 27.99955702076175 0  5.002794621551457 28.00082015704347 0  6.002036850105746 28.00058704224798 0  7.001330145556346 28.00037819783109 0  8.000656838797003 28.000
[...]
<PointData  Vectors="f_44-2"> 
<DataArray  type="Float64"  Name="f_44-2"  NumberOfComponents="3" format="ascii">0.0000000000000000e+00 0.0000000000000000e+00 0.0000000000000000e+00  0.0000000000000000e+00 0.0000000000000000e+00 0.0000000000000000e+00  0.0000000000000000e+00 0.0000000000000000e+00 0.0000000000000000e+00  0.0000000000000000e+00 0.0000000000000000e+00 0.0000000000000000e+00  0.0000000000000000e+00 0.0000000000000000e+00 0.0000000000000000e+00  0.0000000000000000e+00 0.0000000000000000e+00 0.0000000000000000e+00  0.0000000000000000e+00 0.0000000000000000e+00 0.0000000000000000e+00  0.0000000000000000e+00 0.0000000000000000e+00 0.0000000000000000e+00  0.0000000000000000e+00 0.0000000000000000e+00 0.0000000000000000e+00  0.0000000000000000e+00 0.0000000000000000e+00 0.0000000000000000e+00  0.0000000000000000e+00 0.0000000000000000e+00 0.0000000000000000e+00  0.0000000000000000e+00 0.0000000000000000e+00 0.0000000000000000e+00  0.0000000000000000e+00 0.0000000000000000e+00 0.0000000000000000e+00  0.0000000000000000e+00 0.0000000000000000e+00 0.0000000000000000e+00  0.0000000000000000e+00 0.0000000000000000e+00 0.0000000000000000e+00  0.0000000000000000e+00 0.0000000000000000e+00 0.0000000000000000e+00  0.0000000000000000e+00 0.0000000000000000e+00 0.0000000000000000e+00  0.0000000000000000e+00 0.0000000000000000e+00 0.0000000000000000e+00  0.0000000000000000e+00 0.0000000000000000e+00 0.0000000000000000e+00  0.0000000000000000e+00 0.0000000000000000e+00 0.0000000000000000e+00  -2.6898037961025015e-05 -3.7223480010455753e-05 0.0000000000000000e+00  -5.6953505847128611e-05 -7.0423618879661521e-05 0.0000000000000000e+00  -9.6634607793610875e-05 -9.6404862822854512e-05 0.0000000000000000e+00  -1.5992551699673557e-04 -1.1400044144802728e-04 0.0000000000000000e+00  -1.0071617816856371e-04 -8.3873646776162414e-05 0.0000000000000000e+00  -3.8122336895347853e-05 -5.8208392610042203e-05 0.0000000000000000e+00  -5.4153542242456436e-06 -3.5422904035385744e-05 0.0000000000000000e+00  4.5244103733213614e-06 -1.7583152353661866e-05 0.0000000000000000e+00  3.8574609671284646e-07 -1.0005596737825271e-05 0.0000000000000000e+00  -4.5178943896301945e-06 -1.5868122063273593e-05 0.0000000000000000e+00  2.7882687906766892e-06 -3.4027645599059751e-05 0.0000000000000000e+00  3.1327579679868729e-05 -5.6834444707222285e-05 0.0000000000000000e+00  8.4534776475232108e-05 -8.2691167811482265e-05 0.0000000000000000e+00  1.6074828776897160e-04 -9.7347173911071567e-05 0.0000000000000000e+00  9.8408433007171714e-05 -8.9644143615960850e-05 0.0000000000000000e+00  5.8636610936033316e-05 -6.7694670242826754e-05 0.0000000000000000e+00  2.7891703816188399e-05 -3.6249890532213731e-05 0.0000000000000000e+00  0.0000000000000000e+00 0.0000000000000000e+00 0.0000000000000000e+00  0.0000000000000000e+00 0.0000000000000000e+00 0.0000000000000000e+00  -4.1165197577639230e-05 -9.0535758119118711e-05 0.0000000000000000e+00  -7.5404531772459791e-05 -1.6971938587756732e-04 0.0000000000000000e+00  -9.8829094903460794e-05 -2.2635055149853382e-04 0.0000000000000000e+00  -1.1260701599872794e-04 -2.4955454405213259e-04 0.0000000000000000e+00  -2.9340941258193746e-05 -2.3799695134144142e-04 0.0000000000000000e+00  2.9018638574419321e-05 -1.7052232145579690e-04 0.0000000000000000e+00  4.9464888513288571e-05 -8.2367660716266495e-05 0.0000000000000000e+00  3.6986589190559746e-05 -1.1956284078463122e-05 0.0000000000000000e+00  6.3609285800707148e-06 1.5930136139021746e-05 0.0000000000000000e+00  -2.4935833708975785e-05 -7.5162772419505085e-06 0.0000000000000000e+00  -3.9474092230293134e-05 -6.9877349169441633e-05 0.0000000000000000e+00  -1.9810494508473753e-05 -1.5481523240166615e-04 0.0000000000000000e+00  3.9074773207511024e-05 -2.4153908957037109e-04 0.0000000000000000e+00  1.2326378597785179e-04 -2.7551787689497815e-04 0.0000000000000000e+00  1.0654262740806880e-04 -2.3627084507826235e-04 0.0000000000000000e+00  8.1163803393358237e-05 -1.7336536818630697e-04 0.0000000000000000e+00  4.4368304995290965e-05 -9.1714859255925197e-05 0.0000000000000000e+00  0.0000000000000000e+00 0.0000000000000000e+00 0.0000000000000000e+00  0.0000000000000000e+00 0.0000000000000000e+00 0.0000000000000000e+00  -8.3130602264348837e-05 -1.8923508987131755e-04 0.0000000000000000e+00  -1.3711470943250111e-04 -3.5920532782758515e-04 0.0000000000000000e+00  -1.3961088802589099e-04 -4.8998638100312118e-04 0.0000000000000000e+00  -8.4008057378840963e-05 -5.6216002450331986e-04 0.0000000000000000e+00  7.3046141392975892e-05 -4.6495054472844692e-04 0.0000000000000000e+00  1.4815165405378242e-04 -2.5911550122649068e-04 0.0000000000000000e+00  1.2867883415408846e-04 -4.2929443537782486e-05 0.0000000000000000e+00  6.8580356605365094e-05 7.7960148114036219e-05 0.0000000000000000e+00  7.0547052239010503e-06 1.0221802966508880e-04 0.0000000000000000e+00  -4.7839655723934542e-05 6.1364896949121981e-05 0.0000000000000000e+00  -8.7801175841107187e-05 -5.0399722111981203e-05 0.0000000000000000e+00  -9.8180228838193470e-05 -2.3861653611339254e-04 0.0000000000000000e+00  -5.4689561702399563e-05 -4.3472868658631688e-04 0.0000000000000000e+00  8.3413173705325822e-05 -5.3398149744495653e-04 0.0000000000000000e+00  1.4930811321293039e-04 -4.7751299791380983e-04 0.0000000000000000e+00  1.4935214351530042e-04 -3.5399460163184325e-04 0.0000000000000000e+00  9.1127377751213919e-05 -1.8741636658927034e-04 0.0000000000000000e+00  0.0000000000000000e+00 0.0000000000000000e+00 0.0000000000000000e+00  0.0000000000000000e+00 0.0000000000000000e+00 0.0000000000000000e+00  -2.4159653917328611e-04 -3.6489690860012013e-04 0.0000000000000000e+00  -4.0474137813536218e-04 -7.0534391565184361e-04 0.0000000000000000e+00  -4.1277052493858096e-04 -9.8794935050466100e-04 0.0000000000000000e+00  -1.9875318717877804e-04 -1.1572374480736290e-03 0.0000000000000000e+00  9.5580607344382810e-05 -7.0585726183920174e-04 0.0000000000000000e+00  5.1912213202470090e-05 -1.7503009704796643e-04 0.0000000000000000e+00  -4.7744934189584450e-05 8.6443183797291486e-05 0.0000000000000000e+00  -4.9038995393995758e-05 1.2043077184261543e-04 0.0000000000000000e+00  2.2354930223570342e-05 1.3081976368917636e-04 0.0000000000000000e+00  7.6973134121043871e-05 1.5622485867806496e-04 0.0000000000000000e+00  6.1308802128531988e-05 4.3138701593997498e-05 0.0000000000000000e+00  -6.1092073429942699e-05 -1.5110908845939890e-04 0.0000000000000000e+00  -9.6101926665257786e-05 -6.2222834419309520e-04 0.0000000000000000e+00  2.0211685277703162e-04 -1.1525479732585047e-03 0.0000000000000000e+00  4.5540471162047578e-04 -9.8681050584010057e-04 0.0000000000000000e+00  4.5053087951896112e-04 -7.0675172026439851e-04 0.0000000000000000e+00  2.6942280720003767e-04 -3.6638500793101131e-04 0.0000000000000000e+00  0.0000000000000000e+00 0.0000000000000000e+00 0.0000000000000000e+00  0.0000000000000000e+00 0.0000000000000000e+00 0.0000000000000000e+00  -7.1339209600676621e-04 -6.3797156387131572e-04 0.0000000000000000e+00  -1.2917670928829447e-03 -1.2822400564453901e-03 0.0000000000000000e+00  -1.5736214114067525e-03 -1.9381971447435529e-03 0.0000000000000000e+00  -1.3328095448952358e-03 -2.6090304807359832e-03 0.0000000000000000e+00  -8.7546553952780825e-04 -1.1721300447868580e-03 0.0000000000000000e+00  -9.3145841661497616e-04 6.5616837901264435e-05 0.0000000000000000e+00  -7.2817994805381885e-04 -1.3376539957482661e-04 0.0000000000000000e+00  -3.1662141379472413e-04 -1.9783438604001628e-04 0.0000000000000000e+00  -8.3267267897173098e-06 -2.1350935642961281e-04 0.0000000000000000e+00  2.9907478732090067e-04 -2.1353644997893799e-04 0.0000000000000000e+00  7.0626843384153401e-04 -2.2593085131133268e-04 0.0000000000000000e+00  1.0710851643991688e-03 2.1997917507908112e-04 0.0000000000000000e+00  1.0370128017783609e-03 -9.9675941833401983e-04 0.0000000000000000e+00  1.5702269142613184e-03 -2.5974197856914669e-03 0.0000000000000000e+00  1.7931098379167358e-03 -1.9525865378280467e-03 0.0000000000000000e+00  1.4559865504342156e-03 -1.3002863805316720e-03 0.0000000000000000e+00  8.0054277391224148e-04 -6.4913634826474693e-04 0.0000000000000000e+00  0.0000000000000000e+00 0.0000000000000000e+00 0.0000000000000000e+00  0.0000000000000000e+00 0.0000000000000000e+00 0.0000000000000000e+00  -1.7230712309739985e-03 -8.8504516530329524e-04 0.0000000000000000e+00  -3.3613128397074130e-03 -1.8110146434733318e-03 0.0000000000000000e+00  -4.8190244011781774e-03 -2.8268748978384842e-03 0.0000000000000000e+00  -5.9771758630653661e-03 -4.0008364301028455e-03 0.0000000000000000e+00  -5.7542605818681524e-03 -1.4178916332531488e-03 0.0000000000000000e+00  -5.9512231691731142e-03 1.1377370427265283e-03 0.0000000000000000e+00  -4.0110304841473720e-03 8.3492849405730795e-04 0.0000000000000000e+00  -1.8845413669174350e-03 6.7678443303604793e-04 0.0000000000000000e+00  3.0867137819792670e-04 6.5536709770666265e-04 0.0000000000000000e+00  2.5179370265979184e-03 7.7658262391125019e-04 0.0000000000000000e+00  4.7002474709339215e-03 1.0735462767127201e-03 0.0000000000000000e+00  6.7638163955546669e-03 1.6289967453135584e-03 0.0000000000000000e+00  6.5402143963948179e-03 -1.2600205105081765e-03 0.0000000000000000e+00  6.6893965682093721e-03 -4.1735556869066963e-03 0.0000000000000000e+00  5.3657071917245147e-03 -2.9463807750605172e-03 0.0000000000000000e+00  3.7321631823115133e-03 -1.8880766594851089e-03 0.0000000000000000e+00  1.9104813003653386e-03 -9.2312110335302595e-04 0.0000000000000000e+00  0.0000000000000000e+00 0.0000000000000000e+00 0.0000000000000000e+00  0.0000000000000000e+00 0.0000000000000000e+00 0.0000000000000000e+00  -3.0676009352235303e-03 -9.6751360827774613e-04 0.0000000000000000e+00  -6.1458368929719221e-03 -1.9786564467562835e-03 0.0000000000000000e+00  -9.2504638261327946e-03 -3.0808588650419800e-03 0.0000000000000000e+00  -1.2408726435224409e-02 -4.3289907475665464e-03 0.0000000000000000e+00  -1.2452033998337960e-02 -1.3601870147425027e-03 0.0000000000000000e+00  -1.2456327939261939e-02 1.6468602416903374e-03 0.0000000000000000e+00  -8.0475327474174695e-03 1.2266772793126477e-03 0.0000000000000000e+00  -3.7229859004167562e-03 1.0059989302434859e-03 0.0000000000000000e+00  5.6268179241705102e-04 9.5520442530809828e-04 0.0000000000000000e+00  4.8514383531858231e-03 1.0651665003325807e-03 0.0000000000000000e+00  9.1819885266947558e-03 1.3415873216113794e-03 0.0000000000000000e+00  1.3586166719546110e-02 1.7994060106976068e-03 0.0000000000000000e+00  1.3623785969521428e-02 -1.3905934584320654e-03 0.0000000000000000e+00  1.3640121907366038e-02 -4.5608321881384457e-03 0.0000000000000000e+00  1.0166512547839828e-02 -3.2610151273076379e-03 0.0000000000000000e+00  6.7544286252707994e-03 -2.1002703324663344e-03 0.0000000000000000e+00  3.3715010170840662e-03 -1.0285603681100793e-03 0.0000000000000000e+00  0.0000000000000000e+00 0.0000000000000000e+00 0.0000000000000000e+00  0.0000000000000000e+00 0.0000000000000000e+00 0.0000000000000000e+00  -4.3635450253933844e-03 -8.7487280172395888e-04 0.0000000000000000e+00  -8.8148403074634531e-03 -1.7808005929732891e-03 0.0000000000000000e+00  -1.3451333961599563e-02 -2.7492306784263113e-03 0.0000000000000000e+00  -1.8384390414585297e-02 -3.8119990669699317e-03 0.0000000000000000e+00  -1.8568873255780514e-02 -1.3410717813761111e-03 0.0000000000000000e+00  -1.8390278875920402e-02 1.1157735307358427e-03 0.0000000000000000e+00  -1.1762849642217622e-02 8.2532866442349751e-04 0.0000000000000000e+00  -5.4127495299141357e-03 6.5964575811707524e-04 0.0000000000000000e+00  8.0478038585597158e-04 6.1560848754046613e-04 0.0000000000000000e+00  7.0255467333153439e-03 6.9133558203323710e-04 0.0000000000000000e+00  1.3385126270223275e-02 8.8758840453034610e-04 0.0000000000000000e+00  2.0027801735462224e-02 1.2070656773036129e-03 0.0000000000000000e+00  2.0220771428527698e-02 -1.4875706956069580e-03 0.0000000000000000e+00  2.0051657273055468e-02 -4.1841920807503983e-03 0.0000000000000000e+00  1.4702368504473652e-02 -3.0168939570858607e-03 0.0000000000000000e+00  9.6486221150302795e-03 -1.9545913230045540e-03 0.0000000000000000e+00  4.7799423386573597e-03 -9.6048715677857081e-04 0.0000000000000000e+00  0.0000000000000000e+00 0.0000000000000000e+00 0.0000000000000000e+00  0.0000000000000000e+00 0.0000000000000000e+00 0.0000000000000000e+00  -5.2986143273488521e-03 -6.5787160363160453e-04 0.0000000000000000e+00  -1.0733377515034618e-02 -1.3322752973892547e-03 0.0000000000000000e+00  -1.6447709191560071e-02 -2.0392712234943351e-03 0.0000000000000000e+00  -2.2599013633869569e-02 -2.7939704556663525e-03 0.0000000000000000e+00  -2.2867428411296086e-02 -1.3476858447405645e-03 0.0000000000000000e+00  -2.2603776462867948e-02 9.6544068202511065e-05 0.0000000000000000e+00  -1.4391118978466831e-02 -7.0578310585593621e-05 0.0000000000000000e+00  -6.5815707059566665e-03 -1.6916088982556546e-04 0.0000000000000000e+00  1.0337550894961578e-03 -1.9895028953614144e-04 0.0000000000000000e+00  8.6532557531932008e-03 -1.6058965955228851e-04 0.0000000000000000e+00  1.6475128138645167e-02 -5.5478796251724420e-05 0.0000000000000000e+00  2.4707111314386156e-02 1.1382418456040510e-04 0.0000000000000000e+00  2.4983499843112725e-02 -1.5577361645623350e-03 0.0000000000000000e+00  2.4720860189011127e-02 -3.2243128608853795e-03 0.0000000000000000e+00  1.8034648305148449e-02 -2.3510320035966216e-03 0.0000000000000000e+00  1.1789081965436573e-02 -1.5351600336701134e-03 0.0000000000000000e+00  5.8257114731873356e-03 -7.5759827420788888e-04 0.0000000000000000e+00  0.0000000000000000e+00 0.0000000000000000e+00 0.0000000000000000e+00  0.0000000000000000e+00 0.0000000000000000e+00 0.0000000000000000e+00  -5.6832735454011721e-03 -3.7485740941080726e-04 0.0000000000000000e+00  -1.1522112034976452e-02 -7.5325631188320253e-04 0.0000000000000000e+00  -1.7677901469072870e-02 -1.1380990491936427e-03 0.0000000000000000e+00  -2.4323558672823192e-02 -1.5310810139826465e-03 0.0000000000000000e+00  -2.4623517617178386e-02 -1.3584556237519895e-03 0.0000000000000000e+00  -2.4323028084635906e-02 -1.1884937615463252e-03 0.0000000000000000e+00  -1.5429558410558304e-02 -1.2380036132346132e-03 0.0000000000000000e+00  -6.9836854157711735e-03 -1.2702504148769808e-03 0.0000000000000000e+00  1.2457518546824746e-03 -1.2831484520561469e-03 0.0000000000000000e+00  9.4814779350300537e-03 -1.2766521258778299e-03 0.0000000000000000e+00  1.7946326649298273e-02 -1.2526802197835492e-03 0.0000000000000000e+00  2.6871395849004942e-02 -1.2152649566786436e-03 0.0000000000000000e+00  2.7179224819577439e-02 -1.5920599661967112e-03 0.0000000000000000e+00  2.6875990805360093e-02 -1.9659748898452015e-03 0.0000000000000000e+00  1.9582504442823643e-02 -1.4551383057529123e-03 0.0000000000000000e+00  1.2787147252945283e-02 -9.6015607999795139e-04 0.0000000000000000e+00  6.3144052125711850e-03 -4.7700049654519016e-04 0.0000000000000000e+00  -5.0861301152657778e-10 0.0000000000000000e+00 0.0000000000000000e+00  0.0000000000000000e+00 0.0000000000000000e+00 0.0000000000000000e+00  -5.4403232466006700e-03 -7.7804149856951625e-05 0.0000000000000000e+00  -1.1031637679403775e-02 -1.4851202240607182e-04 0.0000000000000000e+00  -1.6929518446407710e-02 -2.0438426460936068e-04 0.0000000000000000e+00  -2.3298393930230626e-02 -2.3635592379840729e-04 0.0000000000000000e+00  -2.3588270744843921e-02 -1.3785972927556265e-03 0.0000000000000000e+00  -2.3299497042237410e-02 -2.5242380381970417e-03 0.0000000000000000e+00  -1.4700319187424331e-02 -2.4736218006560758e-03 0.0000000000000000e+00  -6.5302597452991410e-03 -2.4477693167165686e-03 0.0000000000000000e+00  1.4326933255133715e-03 -2.4439418605389585e-03 0.0000000000000000e+00  9.4041054963184666e-03 -2.4617150056484463e-03 0.0000000000000000e+00  1.7599657017906386e-02 -2.5029417724568913e-03 0.0000000000000000e+00  2.6241675556628610e-02 -2.5717904212165469e-03 0.0000000000000000e+00  2.6534354623045094e-02 -1.6036107531238819e-03 0.0000000000000000e+00  2.6232911940283730e-02 -6.3458873353231188e-04 0.0000000000000000e+00  1.9116121530221075e-02 -4.9561388187546946e-04 0.0000000000000000e+00  1.2482623110474654e-02 -3.3912381873128691e-04 0.0000000000000000e+00  6.1637708694149557e-03 -1.7204339948896901e-04 0.0000000000000000e+00  0.0000000000000000e+00 0.0000000000000000e+00 0.0000000000000000e+00  0.0000000000000000e+00 0.0000000000000000e+00 0.0000000000000000e+00  -4.5879209754240390e-03 1.9085553083811248e-04 0.0000000000000000e+00  -9.3032748893830119e-03 3.9686747364290703e-04 0.0000000000000000e+00  -1.4277817913932412e-02 6.3365972075379471e-04 0.0000000000000000e+00  -1.9648028025570193e-02 9.1840407919823743e-04 0.0000000000000000e+00  -1.9896391722942143e-02 -1.4094764139154887e-03 0.0000000000000000e+00  -1.9656117614623634e-02 -3.7408115321437042e-03 0.0000000000000000e+00  -1.2276713728949817e-02 -3.6111572118833210e-03 0.0000000000000000e+00  -5.2585586515188970e-03 -3.5380956050287855e-03 0.0000000000000000e+00  1.5864001973663062e-03 -3.5192403824522689e-03 0.0000000000000000e+00  8.4416172223266191e-03 -3.5539311231066405e-03 0.0000000000000000e+00  1.5490702201202156e-02 -3.6438153929865729e-03 0.0000000000000000e+00  2.2922249292663264e-02 -3.7928325432760529e-03 0.0000000000000000e+00  2.3163735331403652e-02 -1.6006698721481468e-03 0.0000000000000000e+00  2.2897700794018462e-02 5.9115643480405074e-04 0.0000000000000000e+00  1.6696884541485491e-02 3.9363394198354445e-04 0.0000000000000000e+00  1.0907714976961375e-02 2.3938337652792201e-04 0.0000000000000000e+00  5.3874628669867810e-03 1.1290615327253536e-04 0.0000000000000000e+00  0.0000000000000000e+00 0.0000000000000000e+00 0.0000000000000000e+00  0.0000000000000000e+00 0.0000000000000000e+00 0.0000000000000000e+00  -3.2184651068572221e-03 3.9899207714059288e-04 0.0000000000000000e+00  -6.5275508631261019e-03 8.1856520402936192e-04 0.0000000000000000e+00  -1.0020430802111747e-02 1.2798769958166558e-03 0.0000000000000000e+00  -1.3794089444395285e-02 1.8052914142674113e-03 0.0000000000000000e+00  -1.3977493437096450e-02 -1.4508678037233390e-03 0.0000000000000000e+00  -1.3812133581024670e-02 -4.7099766627495395e-03 0.0000000000000000e+00  -8.4290334613539557e-03 -4.5218691327743700e-03 0.0000000000000000e+00  -3.3037210728472577e-03 -4.4136299918716079e-03 0.0000000000000000e+00  1.7000034426286337e-03 -4.3824055678960252e-03 0.0000000000000000e+00  6.7152606606566689e-03 -4.4274730401643314e-03 0.0000000000000000e+00  1.1875443094416883e-02 -4.5503480410165661e-03 0.0000000000000000e+00  1.7316925609907229e-02 -4.7546277398364525e-03 0.0000000000000000e+00  1.7481581035911863e-02 -1.5899442185939832e-03 0.0000000000000000e+00  1.7276115589169461e-02 1.5737876163272914e-03 0.0000000000000000e+00  1.2611547669068097e-02 1.1097107304946037e-03 0.0000000000000000e+00  8.2453377587782730e-03 7.0678446147368870e-04 0.0000000000000000e+00  4.0744358036260159e-03 3.4360120500978206e-04 0.0000000000000000e+00  0.0000000000000000e+00 0.0000000000000000e+00 0.0000000000000000e+00  0.0000000000000000e+00 0.0000000000000000e+00 0.0000000000000000e+00  -1.4792825206122308e-03 5.2492817410292438e-04 0.0000000000000000e+00  -3.0034117769256238e-03 1.0733868959714641e-03 0.0000000000000000e+00  -4.6187704905267446e-03 1.6694768886240611e-03 0.0000000000000000e+00  -6.3734797525259726e-03 2.3384384748440070e-03 0.0000000000000000e+00  -6.4757713130238845e-03 -1.4997219866498405e-03 0.0000000000000000e+00  -6.4014778505040995e-03 -5.3397061970932320e-03 0.0000000000000000e+00  -3.5711234205612571e-03 -5.1155166596731491e-03 0.0000000000000000e+00  -8.7204095088517879e-04 -4.9833885130457223e-03 0.0000000000000000e+00  1.7683723453580354e-03 -4.9426587359578389e-03 0.0000000000000000e+00  4.4209870361286195e-03 -4.9922356142400081e-03 0.0000000000000000e+00  7.1568467736992068e-03 -5.1333278756001723e-03 0.0000000000000000e+00  1.0048884960379955e-02 -5.3693783743839971e-03 0.0000000000000000e+00  1.0121236501326368e-02 -1.5749034291773541e-03 0.0000000000000000