<?xml version="1.0"?>
<VTKFile type="UnstructuredGrid"  version="0.1"  >
<UnstructuredGrid>
<Piece  NumberOfPoints="589" NumberOfCells="1080">
<Points>
<DataArray  type="Float64"  NumberOfComponents="3"  format="ascii">-9 0 0  -8 0 0  -7 0 0  -6 0 0  -5 0 0  -4 0 0  -3 0 0  -2 0 0  -1 0 0  0 0 0  1 0 0  2 0 0  3 0 0  4 0 0  5 0 0  6 0 0  7 0 0  8 0 0  9 0 0  -9 2 0  -8.000007347753531 1.99998909675088 0  -7.000015411250105 1.999979523830872 0  -6.000025866174561 1.999972359886009 0  -5.000042537211473 1.999968073279319 0  -4.000025367488418 1.999976193126937 0  -3.000007687945436 1.99998381717459 0  -1.999999013035007 1.99999094000384 0  -0.9999974533427529 1.999996569662687 0  -3.399504728196097e-07 1.999999048675166 0  0.9999964411200682 1.999997371027486 0  1.999996879379683 1.999991952310165 0  3.000003652866539 1.999985310726215 0  4.00001758296648 1.999978229340726 0  5.000037711107318 1.999975429165242 0  6.000022718852313 1.999976432153056 0  7.000013495680049 1.999981812599062 0  8.000006440429162 1.999990152606313 0  9 2 0  -9 4 0  -8.000011832371758 3.999972872860365 0  -7.000021256814294 3.999949412265733 0  -6.000026867816814 3.999933210693226 0  -5.000028959755945 3.999927695922124 0  -4.000004055771372 3.999931493126339 0  -2.999987291589615 3.999952860946248 0  -1.999982781605881 3.99998065617878 0  -0.9999889058129484 4.000003013130028 0  -8.252805665679399e-07 4.000012055479583 0  0.9999869891060681 4.000005105781348 0  1.999979963909104 3.999986239996336 0  2.999983523174461 3.999960704242647 0  3.999999308762663 3.999935080211517 0  5.000023349126688 3.999926675036321 0  6.000022361219621 3.999935354909323 0  7.000018319497972 3.999951787665448 0  8.000010421293302 3.999974276406668 0  9 4 0  -9 6 0  -8.000025947861536 5.999941986077517 0  -7.000042356076223 5.999890267648516 0  -6.00004194573738 5.999851317208396 0  -5.000022630319076 5.999831340128004 0  -3.999974187135631 5.999863004326565 0  -2.999952084841916 5.999929052259795 0  -1.999960627044463 5.999998261459537 0  -0.9999821152580399 6.000036735119537 0  -3.842117510599611e-06 6.000044500066724 0  0.9999766673303301 6.000032111975946 0  1.999961871171928 5.999997801152322 0  2.999956416079624 5.999939839890885 0  3.999967923712305 5.99987978731685 0  5.000009121065129 5.999850180892631 0  6.000034218806991 5.999863268922066 0  7.000038568371037 5.999897541994213 0  8.000024493221972 5.999945463843359 0  9 6 0  -9 8 0  -8.000078212283887 7.999885932440241 0  -7.000130723819543 7.99978006732926 0  -6.000132640679708 7.999693546307855 0  -5.000062660177652 7.999644735675778 0  -3.999969073555451 7.999790671494431 0  -2.999986267084814 7.999962098175747 0  -2.000021313642432 8.000045595742529 0  -1.000024226769317 8.000055068813619 0  -3.242337213782699e-06 8.000057816412117 0  1.000012526120748 8.000066183463556 0  2.000006281862274 8.000031488919641 0  2.999965930083755 7.999972383676876 0  3.99995243829096 7.999825904845591 0  5.000044167802277 7.999660615159181 0  6.00012905758005 7.999706465023488 0  7.000132502881412 7.999788718227299 0  8.000080226118886 7.999890206903912 0  9 8 0  -9 10 0  -8.000233203455524 9.99979713044657 0  -7.000421388085233 9.999592585726917 0  -6.000510847334701 9.999385090660407 0  -5.000426769825584 9.999174321166446 0  -4.000278461215698 9.999645382439843 0  -3.00030266752922 10.00005037531148 0  -2.000242369973102 9.999980493658301 0  -1.000111950475247 9.999958069425839 0  -1.5906618970284e-05 9.999952600881302 0  1.000079312728883 9.999953038202785 0  2.000205925898126 9.999950568500049 0  3.00031761427861 10.00009571858006 0  4.000303965162983 9.999713094175435 0  5.000471873504226 9.999208214361687 0  6.00054951175142 9.999404173049546 0  7.000449223215464 9.999603022562564 0  8.000247689475344 9.999801776641929 0  9 10 0  -9 12 0  -8.000567916720724 11.99971516028082 0  -7.001106377316314 11.999417126775 0  -6.001582087125445 11.99909011804549 0  -5.001953743688553 11.99871212362931 0  -4.001878021985219 11.99957092412341 0  -3.001946636340287 12.00042116577092 0  -2.001337762933839 12.00031799231399 0  -1.000660560826637 12.000261976919 0  4.254735371839299e-05 12.00025072875006 0  1.000752742819613 12.00028598864431 0  2.001454210862529 12.00037807415845 0  3.002115530526808 12.00055284586342 0  4.002042954185892 11.99963512875025 0  5.002091121859509 11.99870983651139 0  6.001680874574479 11.99909060571571 0  7.001170524892006 11.99941788553176 0  8.000599531377137 11.99971557888215 0  9 12 0  -9 14 0  -8.001019725444708 13.99968611355864 0  -7.002041202724614 13.99935782536536 0  -6.003067543807171 13.99899946295086 0  -5.004105349539895 13.99859286202907 0  -4.004116166955978 13.99959659524925 0  -3.004122423866014 14.00061304440895 0  -2.002707846234944 14.00046713233853 0  -1.001313400002847 14.00038705715662 0  7.282059256712233e-05 14.00036304600282 0  1.001462146863049 14.00039190893212 0  2.002865113237676 14.00047522680583 0  3.004290063427632 14.00061753902553 0  4.004301396956231 13.99959905344993 0  5.004307426508676 13.99858691593082 0  6.003210894191248 13.99899156927792 0  7.002133376134132 13.9993514370861 0  8.001064885063098 13.9996826576645 0  9 14 0  -9 16 0  -8.001463532172242 15.9997147725223 0  -7.00295493483691 15.99941902965846 0  -6.004504505438756 15.99910207581095 0  -5.006147471091006 15.99875302549198 0  -4.006205974408508 15.9996095042079 0  -3.006150930934235 16.00046144291471 0  -2.003999977805793 16.00035372307527 0  -1.001934465987776 16.00028852413795 0  9.071166057107305e-05 16.0002644472165 0  1.002118186121558 16.0002805801646 0  2.004190604248826 16.00033697169351 0  3.006353345619062 16.00043441513041 0  4.006415337549635 15.9995725274564 0  5.006361135636893 15.99870998504785 0  6.004661895447721 15.99907206436886 0  7.003058325265408 15.99939985015591 0  8.001514744496305 15.99970539276743 0  9 16 0  -9 18 0  -8.001794790956023 17.99978551875658 0  -7.003634126080149 17.9995651813853 0  -6.005564867622591 17.99933324131175 0  -5.007638489266555 17.9990841952527 0  -4.007726743829695 17.99961252262873 0  -3.007641885045226 18.00014017123299 0  -2.004953652051138 18.00007089074807 0  -1.002395738065318 18.00002618187493 0  9.935399129114296e-05 18.00000567991763 0  1.002595847184843 18.00000887288839 0  2.005157873975357 18.0000351364822 0  3.007852614578018 18.0000836069694 0  4.007942537211971 17.99955273475664 0  5.007856900850955 17.99902343492787 0  6.005726837036296 17.99928998290598 0  7.003741194845602 17.99953738904441 0  8.001848047017713 17.9997719250203 0  9 18 0  -9 20 0  -8.001946901892454 19.9998796729992 0  -7.00394577034852 19.99975776876519 0  -6.006050554121098 19.99963288671674 0  -5.008319165218855 19.99950397324301 0  -4.00841980728438 19.99961263760674 0  -3.00832060564087 19.9997205486822 0  -2.005389761317665 19.99969025179657 0  -1.002607482561262 19.99966750784477 0  0.0001023171206687737 19.99965262798554 0  1.002812969038326 19.99964536158523 0  2.005597769078521 19.99964491590556 0  3.008532703592483 19.9996499079579 0  4.008633853929413 19.99954289978779 0  5.008534045052841 19.99943696390691 0  6.006210619269081 19.99958453811322 0  7.004051948628754 19.99972644419505 0  8.001999829642029 19.99986428266865 0  8.99999999999214 19.9999999999934 0  -9 22 0  -8.001890249368095 21.99998011732896 0  -7.00383184406855 21.99996226260683 0  -6.005877736129051 21.99994866064269 0  -5.008084076705701 21.9999419338746 0  -4.008182575844324 21.99960872415565 0  -3.00808502786843 21.99927467049323 0  -2.005235365694332 21.99927956019603 0  -1.002531077912758 21.99927755160451 0  0.0001018656856856294 21.99926929637395 0  1.002735255663341 21.9992547278239 0  2.005440860306615 21.99923307459879 0  3.008292644924948 21.99920284756693 0  4.008389819282741 21.99953975035594 0  5.008290390004142 21.99987725666651 0  6.006032040735959 21.99990175331174 0  7.003934493684459 21.99993174871249 0  8.001941502641419 21.99996508761755 0  9 22 0  -9 24 0  -8.00162729432575 24.00007245021446 0  -7.003298778523893 24.00014974392847 0  -6.005059881006852 24.00023692548242 0  -5.00695842440455 24.00033945450214 0  -4.007043351875264 23.99960104084299 0  -3.006959980278223 23.99886186388619 0  -2.004503117518053 23.99889631520433 0  -1.002170978545922 23.99891244357287 0  9.971563504319284e-05 23.99891107811674 0  1.002370548205555 23.99889228210728 0  2.004703086462463 23.99885535605635 0  3.007160563527898 23.99879883262368 0  4.007241698253934 23.99954153091259 0  5.007154565511005 24.00028456689581 0  6.005207053694386 24.00019695063436 0  7.00339691074706 24.00012366133875 0  8.001676357705286 24.00005957952383 0  9 24 0  -9 26 0  -8.001186529869969 26.00014542767412 0  -7.002405173033147 26.00029768339504 0  -6.003688915505365 26.00046379802006 0  -5.005072322986935 26.0006512221011 0  -4.005134993832323 25.99959012626812 0  -3.005075216724643 25.9985284368081 0  -2.003275483287242 25.99858603334862 0  -1.001566690700666 25.99861698099753 0  9.716191789635123e-05 25.99862224773043 0  1.001760923150363 25.99860201276291 0  2.00346942634931 25.99855566725597 0  3.005268626979108 25.99848181227568 0  4.005324830527035 25.99954661853333 0  5.005259034346058 26.00061156483872 0  6.003829410808443 26.0004348396166 0  7.002499040470862 26.00027875137553 0  8.001233516714343 26.00013607354949 0  9 26 0  -9 28 0  -8.000616096041147 28.00019111435995 0  -7.001248951847482 28.00039019953918 0  -6.00191582171136 28.00060543141245 0  -5.00263472016382 28.00084540233584 0  -4.002669206154165 27.99957700967053 0  -3.002639205139646 27.99830830419964 0  -2.001687523040755 27.99838200047652 0  -1.000784199481631 27.99842389017362 0  9.512698705877065e-05 27.99843506506003 0  1.000974208073528 27.99841581711535 0  2.001876777247388 27.99836563494067 0  3.002827141571771 27.99828320273627 0  4.002852762617423 27.99955387095489 0  5.002814610077323 28.00082459443477 0  6.002051475753664 28.00059020475728 0  7.001339724013133 28.00038022850071 0  8.000661577024184 
[...]
<PointData  Vectors="f_44-2"> 
<DataArray  type="Float64"  Name="f_44-2"  NumberOfComponents="3" format="ascii">0.0000000000000000e+00 0.0000000000000000e+00 0.0000000000000000e+00  0.0000000000000000e+00 0.0000000000000000e+00 0.0000000000000000e+00  0.0000000000000000e+00 0.0000000000000000e+00 0.0000000000000000e+00  0.0000000000000000e+00 0.0000000000000000e+00 0.0000000000000000e+00  0.0000000000000000e+00 0.0000000000000000e+00 0.0000000000000000e+00  0.0000000000000000e+00 0.0000000000000000e+00 0.0000000000000000e+00  0.0000000000000000e+00 0.0000000000000000e+00 0.0000000000000000e+00  0.0000000000000000e+00 0.0000000000000000e+00 0.0000000000000000e+00  0.0000000000000000e+00 0.0000000000000000e+00 0.0000000000000000e+00  0.0000000000000000e+00 0.0000000000000000e+00 0.0000000000000000e+00  0.0000000000000000e+00 0.0000000000000000e+00 0.0000000000000000e+00  0.0000000000000000e+00 0.0000000000000000e+00 0.0000000000000000e+00  0.0000000000000000e+00 0.0000000000000000e+00 0.0000000000000000e+00  0.0000000000000000e+00 0.0000000000000000e+00 0.0000000000000000e+00  0.0000000000000000e+00 0.0000000000000000e+00 0.0000000000000000e+00  0.0000000000000000e+00 0.0000000000000000e+00 0.0000000000000000e+00  0.0000000000000000e+00 0.0000000000000000e+00 0.0000000000000000e+00  0.0000000000000000e+00 0.0000000000000000e+00 0.0000000000000000e+00  0.0000000000000000e+00 0.0000000000000000e+00 0.0000000000000000e+00  0.0000000000000000e+00 0.0000000000000000e+00 0.0000000000000000e+00  -2.6281875421012741e-05 -3.6436469488219611e-05 0.0000000000000000e+00  -5.5659791595002198e-05 -6.8931651192795184e-05 0.0000000000000000e+00  -9.4472351274142545e-05 -9.4354774984942294e-05 0.0000000000000000e+00  -1.5641880611652620e-04 -1.1156172357811799e-04 0.0000000000000000e+00  -9.8469119832122614e-05 -8.2100634938735625e-05 0.0000000000000000e+00  -3.7195482412359854e-05 -5.6984619326469586e-05 0.0000000000000000e+00  -5.1797533801456497e-06 -3.4679358753489221e-05 0.0000000000000000e+00  4.5437163231913992e-06 -1.7217813125800946e-05 0.0000000000000000e+00  4.8648961980919795e-07 -9.8109485752598876e-06 0.0000000000000000e+00  -4.3056010563709661e-06 -1.5576895976681361e-05 0.0000000000000000e+00  2.8864530002760573e-06 -3.3401242559945668e-05 0.0000000000000000e+00  3.0914231455048340e-05 -5.5794129434368464e-05 0.0000000000000000e+00  8.3161781151959373e-05 -8.1209938119040757e-05 0.0000000000000000e+00  1.5802581196419532e-04 -9.5703588715102426e-05 0.0000000000000000e+00  9.6786606973909954e-05 -8.8085001830682234e-05 0.0000000000000000e+00  5.7686735199732903e-05 -6.6498584291657591e-05 0.0000000000000000e+00  2.7443402263111365e-05 -3.5604264816868209e-05 0.0000000000000000e+00  0.0000000000000000e+00 0.0000000000000000e+00 0.0000000000000000e+00  0.0000000000000000e+00 0.0000000000000000e+00 0.0000000000000000e+00  -4.0178447784790578e-05 -8.8633590092939590e-05 0.0000000000000000e+00  -7.3581066629303460e-05 -1.6614815296186656e-04 0.0000000000000000e+00  -9.6408238500352621e-05 -2.2157244255929855e-04 0.0000000000000000e+00  -1.0980534535247791e-04 -2.4425231727049376e-04 0.0000000000000000e+00  -2.8270922500104458e-05 -2.3299584098286302e-04 0.0000000000000000e+00  2.8879791928215132e-05 -1.6694906608519025e-04 0.0000000000000000e+00  4.8900069868417471e-05 -8.0637192068386160e-05 0.0000000000000000e+00  3.6675091185073608e-05 -1.1700921388714345e-05 0.0000000000000000e+00  6.6788979148174643e-06 1.5574546782750696e-05 0.0000000000000000e+00  -2.3965044298662254e-05 -7.4606229034852516e-06 0.0000000000000000e+00  -3.8170377938017262e-05 -6.8652195558465193e-05 0.0000000000000000e+00  -1.8832805635305184e-05 -1.5200350879846240e-04 0.0000000000000000e+00  3.8973182753383974e-05 -2.3715634355497234e-04 0.0000000000000000e+00  1.2159350984451823e-04 -2.7068113130847678e-04 0.0000000000000000e+00  1.0501388071703738e-04 -2.3203814258668969e-04 0.0000000000000000e+00  7.9945563724290712e-05 -1.7022363336032306e-04 0.0000000000000000e+00  4.3684810236301362e-05 -9.0043004032973030e-05 0.0000000000000000e+00  0.0000000000000000e+00 0.0000000000000000e+00 0.0000000000000000e+00  0.0000000000000000e+00 0.0000000000000000e+00 0.0000000000000000e+00  -8.1173216831127072e-05 -1.8528566268844035e-04 0.0000000000000000e+00  -1.3380420662931100e-04 -3.5170635918643404e-04 0.0000000000000000e+00  -1.3606517703580037e-04 -4.7974948635165439e-04 0.0000000000000000e+00  -8.1448128324777003e-05 -5.5039254877599798e-04 0.0000000000000000e+00  7.2386380756364556e-05 -4.5526990958353616e-04 0.0000000000000000e+00  1.4596639881199331e-04 -2.5373443492905163e-04 0.0000000000000000e+00  1.2693180826561809e-04 -4.2038724518881399e-05 0.0000000000000000e+00  6.8093767498540186e-05 7.6356620595507775e-05 0.0000000000000000e+00  7.8317011991441927e-06 1.0008796181950877e-04 0.0000000000000000e+00  -4.5956158647361075e-05 5.9995263080737422e-05 0.0000000000000000e+00  -8.5114739343465653e-05 -4.9642434214484698e-05 0.0000000000000000e+00  -9.5259927326993572e-05 -2.3427352142594337e-04 0.0000000000000000e+00  -5.2575507942003180e-05 -4.2669379480955499e-04 0.0000000000000000e+00  8.2867859174822167e-05 -5.2419772647721954e-04 0.0000000000000000e+00  1.4719656264936128e-04 -4.6865927436465357e-04 0.0000000000000000e+00  1.4696865808451568e-04 -3.4739183847597464e-04 0.0000000000000000e+00  8.9613791549277320e-05 -1.8391063196907664e-04 0.0000000000000000e+00  0.0000000000000000e+00 0.0000000000000000e+00 0.0000000000000000e+00  0.0000000000000000e+00 0.0000000000000000e+00 0.0000000000000000e+00  -2.3615892231269479e-04 -3.5730208802414872e-04 0.0000000000000000e+00  -3.9547271295520470e-04 -6.9067225154708777e-04 0.0000000000000000e+00  -4.0321515283899478e-04 -9.6742575104969927e-04 0.0000000000000000e+00  -1.9347906559196609e-04 -1.1332520679654264e-03 0.0000000000000000e+00  9.4783788318677931e-05 -6.9132836198457649e-04 0.0000000000000000e+00  5.2167516737147704e-05 -1.7157379578327996e-04 0.0000000000000000e+00  -4.5302083480588749e-05 8.4524314417090717e-05 0.0000000000000000e+00  -4.6501031044702549e-05 1.1791455189030545e-04 0.0000000000000000e+00  2.3442173663485695e-05 1.2813606105235357e-04 0.0000000000000000e+00  7.6915438686677497e-05 1.5302847709882937e-04 0.0000000000000000e+00  6.1507941387565698e-05 4.2070656474175024e-05 0.0000000000000000e+00  -5.8509686382734915e-05 -1.4851143282769604e-04 0.0000000000000000e+00  -9.2842033882594474e-05 -6.1057904645793113e-04 0.0000000000000000e+00  1.9954831820439241e-04 -1.1306973211759888e-03 0.0000000000000000e+00  4.4753400355717802e-04 -9.6805404977671041e-04 0.0000000000000000e+00  4.4241595035522424e-04 -6.9330511845938636e-04 0.0000000000000000e+00  2.6450533575144884e-04 -3.5941166114269974e-04 0.0000000000000000e+00  0.0000000000000000e+00 0.0000000000000000e+00 0.0000000000000000e+00  0.0000000000000000e+00 0.0000000000000000e+00 0.0000000000000000e+00  -6.9805507856014596e-04 -6.2466519018790356e-04 0.0000000000000000e+00  -1.2639943072763683e-03 -1.2555120090791177e-03 0.0000000000000000e+00  -1.5397916218919314e-03 -1.8978407921550629e-03 0.0000000000000000e+00  -1.3037940020141560e-03 -2.5547191359041603e-03 0.0000000000000000e+00  -8.5597920276235561e-04 -1.1481124891014180e-03 0.0000000000000000e+00  -9.1051962638755103e-04 6.3605803863050572e-05 0.0000000000000000e+00  -7.1129201576231461e-04 -1.3126087544905490e-04 0.0000000000000000e+00  -3.0824266967678041e-04 -1.9388297802661281e-04 0.0000000000000000e+00  -6.2088771334778764e-06 -2.0920998836155376e-04 0.0000000000000000e+00  2.9502161562270545e-04 -2.0927421678872932e-04 0.0000000000000000e+00  6.9413134593684477e-04 -2.2154530273516403e-04 0.0000000000000000e+00  1.0516092243093164e-03 2.1543191944544752e-04 0.0000000000000000e+00  1.0181250225020635e-03 -9.7776032379538443e-04 0.0000000000000000e+00  1.5409998674681248e-03 -2.5473952288305518e-03 0.0000000000000000e+00  1.7592623336909019e-03 -1.9150754974767042e-03 0.0000000000000000e+00  1.4283911051613443e-03 -1.2753483255638692e-03 0.0000000000000000e+00  7.8534706191158322e-04 -6.3669879362609561e-04 0.0000000000000000e+00  0.0000000000000000e+00 0.0000000000000000e+00 0.0000000000000000e+00  0.0000000000000000e+00 0.0000000000000000e+00 0.0000000000000000e+00  -1.6862629113422781e-03 -8.6650074989385705e-04 0.0000000000000000e+00  -3.2895748621152216e-03 -1.7730775223748147e-03 0.0000000000000000e+00  -4.7163050322528927e-03 -2.7676792276549716e-03 0.0000000000000000e+00  -5.8499849460295558e-03 -3.9170914846271398e-03 0.0000000000000000e+00  -5.6317906679053112e-03 -1.3890458561333777e-03 0.0000000000000000e+00  -5.8243445067916073e-03 1.1122252337045797e-03 0.0000000000000000e+00  -3.9225943401201002e-03 8.1630634530520309e-04 0.0000000000000000e+00  -1.8387465136079821e-03 6.6201380716352312e-04 0.0000000000000000e+00  3.1021549161132416e-04 6.4159441925299744e-04 0.0000000000000000e+00  2.4746382631030892e-03 7.6088990476502456e-04 0.0000000000000000e+00  4.6123575921443614e-03 1.0524140573079366e-03 0.0000000000000000e+00  6.6333045259060475e-03 1.5972629783281645e-03 0.0000000000000000e+00  6.4139221786260713e-03 -1.2359902077007678e-03 0.0000000000000000e+00  6.5603992618485417e-03 -4.0933199075625613e-03 0.0000000000000000e+00  5.2625259092629424e-03 -2.8898963269820325e-03 0.0000000000000000e+00  3.6605306035158353e-03 -1.8519520813917820e-03 0.0000000000000000e+00  1.8738463315051939e-03 -9.0548039110185745e-04 0.0000000000000000e+00  0.0000000000000000e+00 0.0000000000000000e+00 0.0000000000000000e+00  0.0000000000000000e+00 0.0000000000000000e+00 0.0000000000000000e+00  -3.0018752058496409e-03 -9.4713830041824316e-04 0.0000000000000000e+00  -6.0144505253139123e-03 -1.9369977988470217e-03 0.0000000000000000e+00  -9.0530034319485347e-03 -3.0160219925113823e-03 0.0000000000000000e+00  -1.2144336939967523e-02 -4.2379347659364172e-03 0.0000000000000000e+00  -1.2186820061041867e-02 -1.3329471556701423e-03 0.0000000000000000e+00  -1.2190706778792549e-02 1.6094480905772454e-03 0.0000000000000000e+00  -7.8706238108432434e-03 1.1990553125705858e-03 0.0000000000000000e+00  -3.6331804570932354e-03 9.8389803527315113e-04 0.0000000000000000e+00  5.6596120162860435e-04 9.3508259115242774e-04 0.0000000000000000e+00  4.7678864544692832e-03 1.0437354234802843e-03 0.0000000000000000e+00  9.0102942701562674e-03 1.3155516489373814e-03 0.0000000000000000e+00  1.3324485402777831e-02 1.7651560833038926e-03 0.0000000000000000e+00  1.3361135159722709e-02 -1.3641868167770857e-03 0.0000000000000000e+00  1.3377400403315309e-02 -4.4741902963572290e-03 0.0000000000000000e+00  9.9712163720917252e-03 -3.1991717040642893e-03 0.0000000000000000e+00  6.6249201030993531e-03 -2.0604945751689853e-03 0.0000000000000000e+00  3.3069313711813872e-03 -1.0091048591977458e-03 0.0000000000000000e+00  0.0000000000000000e+00 0.0000000000000000e+00 0.0000000000000000e+00  0.0000000000000000e+00 0.0000000000000000e+00 0.0000000000000000e+00  -4.2687327501761381e-03 -8.5630808506886597e-04 0.0000000000000000e+00  -8.6256143116313442e-03 -1.7430195763848413e-03 0.0000000000000000e+00  -1.3162801827915984e-02 -2.6909454863197316e-03 0.0000000000000000e+00  -1.7990609052991480e-02 -3.7312373272033691e-03 0.0000000000000000e+00  -1.8171320398250205e-02 -1.3145851478755656e-03 0.0000000000000000e+00  -1.7996157382532237e-02 1.0882600770390088e-03 0.0000000000000000e+00  -1.1503661360576916e-02 8.0570918242193243e-04 0.0000000000000000e+00  -5.2811335915598050e-03 6.4432389242470177e-04 0.0000000000000000e+00  8.1102068426479237e-04 6.0223841919825928e-04 0.0000000000000000e+00  6.9060310990428043e-03 6.7755992272251352e-04 0.0000000000000000e+00  1.3136789328717643e-02 8.7103772810290237e-04 0.0000000000000000e+00  1.9644694377648410e-02 1.1853338042882731e-03 0.0000000000000000e+00  1.9833659478427485e-02 -1.4594361659285677e-03 0.0000000000000000e+00  1.9668099268987178e-02 -4.1061734360588187e-03 0.0000000000000000e+00  1.4421759259629102e-02 -2.9606466263897026e-03 0.0000000000000000e+00  9.4647841348870047e-03 -1.9181764688780893e-03 0.0000000000000000e+00  4.6889796586949764e-03 -9.4263450900286061e-04 0.0000000000000000e+00  0.0000000000000000e+00 0.0000000000000000e+00 0.0000000000000000e+00  0.0000000000000000e+00 0.0000000000000000e+00 0.0000000000000000e+00  -5.1836726845731875e-03 -6.4372669303848073e-04 0.0000000000000000e+00  -1.0500957414509444e-02 -1.3036343247723966e-03 0.0000000000000000e+00  -1.6092163375087926e-02 -1.9954424912362535e-03 0.0000000000000000e+00  -2.2110908292703929e-02 -2.7339514755122746e-03 0.0000000000000000e+00  -2.2373778757621619e-02 -1.3213430090203812e-03 0.0000000000000000e+00  -2.2115352469958546e-02 8.9230473938855891e-05 0.0000000000000000e+00  -1.4068729966554791e-02 -7.3145999795279584e-05 0.0000000000000000e+00  -6.4167915841345773e-03 -1.6837798798901497e-04 0.0000000000000000e+00  1.0444878286876703e-03 -1.9619737425853541e-04 0.0000000000000000e+00  8.5099195337827119e-03 -1.5728942265296362e-04 0.0000000000000000e+00  1.6173667975049183e-02 -5.2965392044097895e-05 0.0000000000000000e+00  2.4239264164176363e-02 1.1431462811278366e-04 0.0000000000000000e+00  2.4510078346544964e-02 -1.5283461302288324e-03 0.0000000000000000e+00  2.4252781505661930e-02 -3.1661414179252885e-03 0.0000000000000000e+00  1.7693856461004763e-02 -2.3085301703192444e-03 0.0000000000000000e+00  1.1566675798266660e-02 -1.5071992192587297e-03 0.0000000000000000e+00  5.7161069952252159e-03 -7.4419154166247285e-04 0.0000000000000000e+00  0.0000000000000000e+00 0.0000000000000000e+00 0.0000000000000000e+00  0.0000000000000000e+00 0.0000000000000000e+00 0.0000000000000000e+00  -5.5584380263433300e-03 -3.6653520913639676e-04 0.0000000000000000e+00  -1.1269268759952605e-02 -7.3652410185546559e-04 0.0000000000000000e+00  -1.7290536383303984e-02 -1.1127949026178258e-03 0.0000000000000000e+00  -2.3791575716721833e-02 -1.4969969354255350e-03 0.0000000000000000e+00  -2.4085300304809237e-02 -1.3321167718521564e-03 0.0000000000000000e+00  -2.3790856257264421e-02 -1.1698740253816074e-03 0.0000000000000000e+00  -1.5077153956487592e-02 -1.2170100022824062e-03 0.0000000000000000e+00  -6.8018116331172059e-03 -1.2472870866408886e-03 0.0000000000000000e+00  1.2611041180673028e-03 -1.2586302188168778e-03 0.0000000000000000e+00  9.3304366909028255e-03 -1.2509838149974447e-03 0.0000000000000000e+00  1.7624495983080930e-02 -1.2261962573312535e-03 0.0000000000000000e+00  2.6369714612677939e-02 -1.1881836694943363e-03 0.0000000000000000e+00  2.6671435690975159e-02 -1.5620593338443814e-03 0.0000000000000000e+00  2.6374262605422714e-02 -1.9331354001810323e-03 0.0000000000000000e+00  1.9217423647806344e-02 -1.4309025217606338e-03 0.0000000000000000e+00  1.2549329496630148e-02 -9.4428538293851152e-04 0.0000000000000000e+00  6.1970924278019115e-03 -4.6912014327226082e-04 0.0000000000000000e+00  -5.4006020762045567e-11 0.0000000000000000e+00 0.0000000000000000e+00  0.0000000000000000e+00 0.0000000000000000e+00 0.0000000000000000e+00  -5.3183668172384051e-03 -7.5653793143967566e-05 0.0000000000000000e+00  -1.0784606391318490e-02 -1.4433520622263583e-04 0.0000000000000000e+00  -1.6551017171316434e-02 -1.9843586245010629e-04 0.0000000000000000e+00  -2.2778748852368753e-02 -2.2907095477459025e-04 0.0000000000000000e+00  -2.3062564066960767e-02 -1.3520436802849430e-03 0.0000000000000000e+00  -2.2779675810171474e-02 -2.4783803201840838e-03 0.0000000000000000e+00  -1.4354676479915077e-02 -2.4274641336181567e-03 0.0000000000000000e+00  -6.3498986153737984e-03 -2.4009389914658587e-03 0.0000000000000000e+00  1.4521598654331702e-03 -2.3960540669441012e-03 0.0000000000000000e+00  9.2627929138560695e-03 -2.4123543754382879e-03 0.0000000000000000e+00  1.7293375749824015e-02 -2.4516241600395288e-03 0.0000000000000000e+00  2.5761794830690507e-02 -2.5179175932185881e-03 0.0000000000000000e+00  2.6048740629653760e-02 -1.5734050399282577e-03 0.0000000000000000e+00  2.5753225550067066e-02 -6.2809608905816457e-04 0.0000000000000000e+00  1.8767358593777695e-02 -4.9030202020669902e-04 0.0000000000000000e+00  1.2255266943771888e-02 -3.3539668866667589e-04 0.0000000000000000e+00  6.0516215893703634e-03 -1.7012620242669988e-04 0.0000000000000000e+00  0.0000000000000000e+00 0.0000000000000000e+00 0.0000000000000000e+00  0.0000000000000000e+00 0.0000000000000000e+00 0.0000000000000000e+00  -4.4814022128079672e-03 1.8733001790377670e-04 0.0000000000000000e+00  -9.0878165181600742e-03 3.8950914950697279e-04 0.0000000000000000e+00  -1.3947173629722998e-02 6.2199449060839176e-04 0.0000000000000000e+00  -1.9194881332854668e-02 9.0149959242527414e-04 0.0000000000000000e+00  -1.9438005649896235e-02 -1.3824898823518320e-03 0.0000000000000000e+00  -1.9202717455390896e-02 -3.6699003391046595e-03 0.0000000000000000e+00  -1.1973097396567356e-02 -3.5413153879502151e-03 0.0000000000000000e+00  -5.0971363883323293e-03 -3.4689254115315674e-03 0.0000000000000000e+00  1.6095131711195291e-03 -3.4496320653314245e-03 0.0000000000000000e+00  8.3266294673270819e-03 -3.4828008383245459e-03 0.0000000000000000e+00  1.5234156689361261e-02 -3.5700406402843559e-03 0.0000000000000000e+00  2.2516956777793612e-02 -3.7151912564552178e-03 0.0000000000000000e+00  2.2753774501257987e-02 -1.5705278910898340e-03 0.0000000000000000e+00  2.2492865737770582e-02 5.7377199734132860e-04 0.0000000000000000e+00  1.6402483277034877e-02 3.8163866573237782e-04 0.0000000000000000e+00  1.0715779180922947e-02 2.3186812992098725e-04 0.0000000000000000e+00  5.2927798607288511e-03 1.0929015170529654e-04 0.0000000000000000e+00  0.0000000000000000e+00 0.0000000000000000e+00 0.0000000000000000e+00  0.0000000000000000e+00 0.0000000000000000e+00 0.0000000000000000e+00  -3.1382539409060954e-03 3.9101964973682472e-04 0.0000000000000000e+00  -6.3651651611729212e-03 8.0221496377024979e-04 0.0000000000000000e+00  -9.7718256597295328e-03 1.2543302988728122e-03 0.0000000000000000e+00  -1.3453510874177800e-02 1.7693990012204040e-03 0.0000000000000000e+00  -1.3632978647048989e-02 -1.4232482970900906e-03 0.0000000000000000e+00  -1.3471168142426673e-02 -4.6188206557305177e-03 0.0000000000000000e+00  -8.1978405124824068e-03 -4.4333148418375249e-03 0.0000000000000000e+00  -3.1766365895523679e-03 -4.3265292222133449e-03 0.0000000000000000e+00  1.7259157194341298e-03 -4.2953822835996944e-03 0.0000000000000000e+00  6.6402589081196025e-03 -4.3390322483202026e-03 0.0000000000000000e+00  1.1697051449131877e-02 -4.4589716395140762e-03 0.0000000000000000e+00  1.7030329857996494e-02 -4.6586520605217093e-03 0.0000000000000000e+00  1.7191866944510848e-02 -1.5600228488750307e-03 0.0000000000000000e+00  1.6990235582861429e-02 1.5376384612914742e-03 0.0000000000000000e+00  1.2403651165939673e-02 1.0840434115252176e-03 0.0000000000000000e+00  8.1098009126642188e-03 6.9034822538003638e-04 0.0000000000000000e+00  4.0075767058908533e-03 3.3558327750735453e-04 0.0000000000000000e+00  0.0000000000000000e+00 0.0000000000000000e+00 0.0000000000000000e+00  0.0000000000000000e+00 0.0000000000000000e+00 0.0000000000000000e+00  -1.4333412791859826e-03 5.1412893179455068e-04 0.0000000000000000e+00  -2.9104786752199591e-03 1.0513191946877705e-03 0.0000000000000000e+00  -4.4767155905345709e-03 1.6351898423273296e-03 0.0000000000000000e+00  -6.1790628405930768e-03 2.2905267231232104e-03 0.0000000000000000e+00  -6.2790498322007780e-03 -1.4713252693688500e-03 0.0000000000000000e+00  -6.2065289632062173e-03 -5.2349945841085712e-03 0.0000000000000000e+00  -3.4346330003879122e-03 -5.0123310960283381e-03 0.0000000000000000e+00  -7.9079273979593915e-04 -4.8836428580354349e-03 0.0000000000000000e+00  1.7960959717400952e-03 -4.8440350108371975e-03 0.0000000000000000e+00  4.3954879258714871e-03 -4.8926953703621366e-03 0.0000000000000000e+00  7.0770204290896300e-03 -5.0309314267648645e-03 0.0000000000000000e+00  9.9122159948316236e-03 -5.2621732335441556e-03 0.0000000000000000e+00  9.9832896128634694e-03 -1.5452967017761659e-03 0.0000000000000000