<?xml version="1.0"?>
<VTKFile type="UnstructuredGrid"  version="0.1"  >
<UnstructuredGrid>
<Piece  NumberOfPoints="589" NumberOfCells="1080">
<Points>
<DataArray  type="Float64"  NumberOfComponents="3"  format="ascii">-9 0 0  -8 0 0  -7 0 0  -6 0 0  -5 0 0  -4 0 0  -3 0 0  -2 0 0  -1 0 0  0 0 0  1 0 0  2 0 0  3 0 0  4 0 0  5 0 0  6 0 0  7 0 0  8 0 0  9 0 0  -9 2 0  -7.999999294365969 2.000000593338311 0  -6.999998595430418 2.000001119813927 0  -5.999997868623173 2.00000152580578 0  -4.999996991084255 2.000001787641618 0  -3.999997963969151 2.000001271004147 0  -2.999998884547662 2.000000824032688 0  -1.999999323978628 2.000000416528694 0  -0.9999993846368932 2.000000070486351 0  8.249741565052798e-07 1.999999840002198 0  1.000001159396973 1.999999735901232 0  2.000001516414864 1.999999695887284 0  3.000001883116281 1.9999995668055 0  4.000002392065919 1.999999145167666 0  5.000003306368275 1.999998073041246 0  6.00000239572526 1.999998685387622 0  7.00000155240708 1.999999196263641 0  8.000000761445067 1.999999621619257 0  9 2 0  -9.000000000004983 4 0  -7.999998561936663 4.00000145412896 0  -6.999997302346299 4.000002721564377 0  -5.99999634017243 4.000003628236536 0  -4.999995695119292 4.000004026433458 0  -3.999996901039355 4.000003512902867 0  -2.999997631355205 4.000002264299881 0  -1.999997730870063 4.000000753054066 0  -0.9999972905519446 3.999999489016988 0  3.446871841727999e-06 3.99999877434693 0  1.000004268971651 3.999998566426115 0  2.000005034875188 3.999998588904309 0  3.000005631317072 3.999998541441983 0  4.000006041421297 3.999998059581048 0  5.000006262799122 3.999996411330716 0  6.00000452214421 3.999997776661158 0  7.000002895384641 3.999998734611551 0  8.00000140481907 3.999999431139535 0  9 4 0  -9 6 0  -7.999997115591751 6.000003061699068 0  -6.999994819594721 6.000005766372382 0  -5.999993543239534 6.00000776457162 0  -4.999993369584034 6.000008769623815 0  -3.999995543246275 6.000006654260004 0  -2.99999631852437 6.000002962066085 0  -1.999995399672967 5.999999263879548 0  -0.9999939712543987 5.999997387886084 0  7.226661039619647e-06 5.99999685722754 0  1.000008143453957 5.999996840430561 0  2.000008871159538 5.999997142902202 0  3.000009470249362 5.999997724657749 0  4.000009770043762 5.999997956498812 0  5.000009290852957 5.999997053719935 0  6.000006192972961 5.999998497460984 0  7.000003693579989 5.99999931865232 0  8.000001705203131 5.999999751331147 0  9 6 0  -9 8 0  -7.999993315534594 8.000006097394744 0  -6.99998825827018 8.000011637097021 0  -5.999986335514633 8.000015873507643 0  -4.999988655333607 8.000017601603775 0  -3.999993344400177 8.000008960563857 0  -2.999990917474699 7.999999233885526 0  -1.999987834532475 7.999995350517054 0  -0.9999870796721603 7.999996000677121 0  1.197916053841765e-05 7.999996350332534 0  1.000011004083888 7.999995901428334 0  2.000010876364685 7.999995921146715 0  3.000012104574145 7.999995999861969 0  4.000012777652002 7.999998266031858 0  5.000010732001476 8.000001127814542 0  6.000005469833624 8.000001708464911 0  7.000002447700278 8.0000014567441 0  8.000000872888652 8.000000807560802 0  9 8 0  -9 10 0  -7.999983006528861 10.00001136397202 0  -6.999969158850743 10.00002272115801 0  -5.999962157434725 10.00003401596624 0  -4.999967048559874 10.00004507825246 0  -3.999975351863239 10.00001494501393 0  -2.9999712023518 9.999989834181395 0  -1.999973080553369 9.999997697709802 0  -0.9999801144030394 10.00000027722152 0  1.569691794938457e-05 10.00000090608467 0  1.000012112368977 10.00000051820264 0  2.000007929049876 9.999999337614792 0  3.000003491890409 9.999992752582571 0  4.000003741913822 10.00000059664715 0  5.000000329984346 10.00001186042141 0  5.999995786508945 10.00000824895391 0  6.999995412517267 10.00000518467888 0  7.999997232885788 10.00000249729142 0  9 10 0  -9 12 0  -7.999960113531477 12.00001665799193 0  -6.999922673045528 12.00003405525588 0  -5.999890406437935 12.00005308950828 0  -4.999866621739542 12.00007504651496 0  -3.999871095087247 12.00001640568331 0  -2.999864136379524 11.99995803460843 0  -1.999883802469165 11.9999691650018 0  -0.9999101106335463 11.9999772628059 0  6.003434874893408e-05 11.99998262764809 0  1.000027713197061 11.99998546316137 0  1.999993247890297 11.99998562302613 0  2.999956880932423 11.99998241537325 0  3.999958300198084 12.00000120897077 0  4.999959416766304 12.00001995670689 0  5.999969425262347 12.00001260063686 0  6.999979599927881 12.00000740503459 0  7.999989805949506 12.00000342661756 0  9 12 0  -9 14 0  -7.999927434657435 14.00001899532024 0  -6.999855488553639 14.00003884209695 0  -5.999784722318693 14.00006047304549 0  -4.999715511312557 14.00008498170155 0  -3.999714796776438 14.00001124922158 0  -2.999711453017241 13.99993639066324 0  -1.999767960466976 13.99995276327777 0  -0.9998259228798634 13.99996518100904 0  0.0001142332649329936 13.99997446734607 0  1.000051888302062 13.99998111127068 0  1.999986171925517 13.99998537917652 0  2.999915994324587 13.99998740897209 0  3.999914368472655 14.00000062647312 0  4.999917065775598 14.00001333645554 0  5.999942399591703 14.00000831048368 0  6.999963662122751 14.00000475664031 0  7.999982427043837 14.00000214873553 0  9 14 0  -9 16 0  -7.99989227583572 16.00001792713748 0  -6.999783579632808 16.00003649287534 0  -5.999672809388092 16.00005634663873 0  -4.999558582744402 16.00007814639813 0  -3.999555073532732 16.00000716968735 0  -2.999555705710903 15.99993622789359 0  -1.99964630566295 15.99995218236235 0  -0.9997342144156744 15.99996562590685 0  0.000178432834668136 15.9999768777338 0  1.000089546347605 15.99998626440328 0  1.99999693922483 15.99999408880884 0  2.999898197701904 16.0000006401221 0  3.999895024532791 15.99999981253445 0  4.999899366738293 15.99999872501916 0  5.999931659515366 15.99999813199084 0  6.999957715126876 15.99999832457694 0  7.999979816243558 15.99999903422776 0  9 16 0  -9 18 0  -7.999861001832881 18.00001430467008 0  -6.999719961623174 18.00002899187161 0  -5.999574712367322 18.00004443668639 0  -4.999422832595275 18.00006099552121 0  -3.999417515656227 18.00000408451036 0  -2.999420153879124 17.9999469570607 0  -1.999535424857423 17.99996165836702 0  -0.9996447351246051 17.99997483849699 0  0.0002487637896401601 17.99998674964118 0  1.000142084738704 17.99999766751863 0  2.00003224331722 18.00000789178171 0  2.999916111267503 18.0000177525901 0  3.999912498940233 17.99999896587437 0  4.999917248679472 17.99997985848769 0  5.999945868547663 17.99998481143604 0  6.999967586478932 17.99998982450446 0  7.999984875080899 17.99999489539693 0  9 18 0  -9 20 0  -7.999837892388627 20.00000915201681 0  -6.999673173053384 20.00001846041631 0  -5.999503125876224 20.00002807063994 0  -4.999324825080603 20.00003810538783 0  -3.999318649502039 20.00000150278551 0  -2.99932249430215 19.99996467647799 0  -1.999448393109188 19.99997721807242 0  -0.9995664953879942 19.99998912847924 0  0.000319804283971077 20.00000059487793 0  1.000207271818791 20.00001184538949 0  2.000092711124771 20.00002314904606 0  2.999972846315516 20.00003481916412 0  3.999969533997286 19.99999801282127 0  4.999973886364927 19.99996090363399 0  5.99998768532856 19.99997125109824 0  6.999995175358074 19.99998109360316 0  7.999998587902845 19.99999062202443 0  8.999999999970083 19.99999999998952 0  -9 22 0  -7.99982522645207 22.00000337366879 0  -6.999647689103534 22.00000672142778 0  -5.999464543186615 22.00001000612404 0  -4.999272781677917 22.00001316778182 0  -3.999266522954262 21.99999944437353 0  -2.999270749894789 21.99998549262977 0  -1.99939255156988 21.99999530241553 0  -0.9995058658160959 22.00000519430069 0  0.000386172816961872 22.00001530363831 0  1.000280572855157 22.00002581067406 0  2.000174398168161 22.00003694045888 0  3.000064682342094 22.0000489643209 0  4.000062228960986 21.99999707818135 0  5.000065609621448 21.99994490598842 0  6.000054736079262 21.99995971157341 0  7.00003907382442 21.99997361970243 0  8.00002030190983 21.99998695089142 0  9 22 0  -9 24 0  -7.999823612611796 23.99999769875554 0  -6.999644632988558 23.99999523430383 0  -5.999460412617687 23.99999243314076 0  -4.999268182651933 23.99998910096573 0  -3.999262421574288 23.99999783765956 0  -2.999266426003635 24.00000633511553 0  -1.999370661936583 24.00001305794936 0  -0.9994666481704784 24.00002038991742 0  0.0004430968879676111 24.0000284212186 0  1.00035617546113 24.00003728457358 0  2.000270254071405 24.00004715516095 0  3.000183008589677 24.00005825145382 0  4.000181763978987 23.99999623187359 0  5.000183790020238 23.9999339369555 0  6.000140939193156 23.99995176304209 0  7.000095409024471 23.99996845435531 0  8.000048134372829 23.99998440855109 0  9 24 0  -9 26 0  -7.999832359873798 25.99999267646006 0  -6.999662537022796 25.99998509371754 0  -5.999488309641233 25.99997698343047 0  -4.999307377838209 25.99996805893707 0  -3.999302534702262 25.99999662004742 0  -2.999305876363513 26.00002493388673 0  -1.999381770505798 26.00002837704699 0  -0.9994503550225301 26.0000327876935 0  0.0004866890407030973 26.0000382100597 0  1.000427781511211 26.00004472900036 0  2.000371411527359 26.00005246647268 0  3.000316107418588 26.00006158276531 0  4.000316238090815 25.9999955437741 0  5.000316714389114 25.99992924004714 0  6.000237855427488 25.99994835485768 0  7.000158719018567 25.99996623831025 0  8.000079403434865 25.99998331765925 0  9 26 0  -9 28 0  -7.999849835273868 27.99998869076311 0  -6.999698053714177 27.99997706279017 0  -5.999543016506288 27.99996478934268 0  -4.999383041143521 27.99995152777585 0  -3.9993793923949 27.99999574083304 0  -2.999381778617921 28.00003969995464 0  -1.999422113917823 28.00003982965023 0  -0.9994565815980695 28.00004113326369 0  0.0005140897595214416 28.00004361169726 0  1.000489246811173 28.00004729881111 0  2.000468308623826 28.00005226181817 0  3.000450762350298 28.00005860115806 0  4.000452276605499 27.99999507861313 0  5.000451166994992 27.99993130023556 0  6.000335875523964 27.99994987333744 0  7.00022274148189 27.99996723947
[...]
<PointData  Vectors="f_44-2"> 
<DataArray  type="Float64"  Name="f_44-2"  NumberOfComponents="3" format="ascii">0.0000000000000000e+00 0.0000000000000000e+00 0.0000000000000000e+00  0.0000000000000000e+00 0.0000000000000000e+00 0.0000000000000000e+00  0.0000000000000000e+00 0.0000000000000000e+00 0.0000000000000000e+00  0.0000000000000000e+00 0.0000000000000000e+00 0.0000000000000000e+00  0.0000000000000000e+00 0.0000000000000000e+00 0.0000000000000000e+00  0.0000000000000000e+00 0.0000000000000000e+00 0.0000000000000000e+00  0.0000000000000000e+00 0.0000000000000000e+00 0.0000000000000000e+00  0.0000000000000000e+00 0.0000000000000000e+00 0.0000000000000000e+00  0.0000000000000000e+00 0.0000000000000000e+00 0.0000000000000000e+00  0.0000000000000000e+00 0.0000000000000000e+00 0.0000000000000000e+00  0.0000000000000000e+00 0.0000000000000000e+00 0.0000000000000000e+00  0.0000000000000000e+00 0.0000000000000000e+00 0.0000000000000000e+00  0.0000000000000000e+00 0.0000000000000000e+00 0.0000000000000000e+00  0.0000000000000000e+00 0.0000000000000000e+00 0.0000000000000000e+00  0.0000000000000000e+00 0.0000000000000000e+00 0.0000000000000000e+00  0.0000000000000000e+00 0.0000000000000000e+00 0.0000000000000000e+00  0.0000000000000000e+00 0.0000000000000000e+00 0.0000000000000000e+00  0.0000000000000000e+00 0.0000000000000000e+00 0.0000000000000000e+00  0.0000000000000000e+00 0.0000000000000000e+00 0.0000000000000000e+00  0.0000000000000000e+00 0.0000000000000000e+00 0.0000000000000000e+00  9.3456030611928771e-05 1.3689159272678653e-04 0.0000000000000000e+00  1.9612916457781320e-04 2.5719502353736389e-04 0.0000000000000000e+00  3.2930444918726517e-04 3.4745528502672351e-04 0.0000000000000000e+00  5.4132426558118425e-04 4.0183358305450126e-04 0.0000000000000000e+00  3.2545634075593319e-04 2.9998126831341034e-04 0.0000000000000000e+00  1.0240950098425559e-04 2.0465412128442700e-04 0.0000000000000000e+00  -7.9909076951594849e-06 1.1575063867147184e-04 0.0000000000000000e+00  -2.9532107380071026e-05 4.5469599111716849e-05 0.0000000000000000e+00  4.4537618918090575e-06 1.4550113005803665e-05 0.0000000000000000e+00  4.2572149182264928e-05 3.5532800558438881e-05 0.0000000000000000e+00  3.4990287720754565e-05 1.0323276691250356e-04 0.0000000000000000e+00  -5.1773565669297807e-05 1.8626270680335960e-04 0.0000000000000000e+00  -2.2800897068728850e-04 2.7488296900841724e-04 0.0000000000000000e+00  -4.8186626344679390e-04 3.1003115885048165e-04 0.0000000000000000e+00  -2.9062545610123363e-04 2.9685880356280277e-04 0.0000000000000000e+00  -1.7263295110722275e-04 2.2886272612870556e-04 0.0000000000000000e+00  -8.2341069056283563e-05 1.2385064548039353e-04 0.0000000000000000e+00  0.0000000000000000e+00 0.0000000000000000e+00 0.0000000000000000e+00  0.0000000000000000e+00 0.0000000000000000e+00 0.0000000000000000e+00  1.5004420606865558e-04 3.4013686145223664e-04 0.0000000000000000e+00  2.7024998692727224e-04 6.3456356231629866e-04 0.0000000000000000e+00  3.4323081525908456e-04 8.3843887498888446e-04 0.0000000000000000e+00  3.7271488258120458e-04 9.0889355299583687e-04 0.0000000000000000e+00  6.0007399726119666e-05 8.6267256681313320e-04 0.0000000000000000e+00  -1.5139709011894017e-04 5.9650771933927350e-04 0.0000000000000000e+00  -2.1007884394416858e-04 2.4969555015098691e-04 0.0000000000000000e+00  -1.3622244113571536e-04 -2.9284686869907834e-05 0.0000000000000000e+00  9.9302127598866280e-06 -1.4209143482303932e-04 0.0000000000000000e+00  1.5939306091337913e-04 -5.5285923571733960e-05 0.0000000000000000e+00  2.4442527364508504e-04 1.8034947493061087e-04 0.0000000000000000e+00  1.9735190080441510e-04 4.9926757445576764e-04 0.0000000000000000e+00  -2.1897307696875566e-06 8.1903064257406373e-04 0.0000000000000000e+00  -3.0432470435673279e-04 9.2353327885212036e-04 0.0000000000000000e+00  -2.8825648897845232e-04 8.1301180752990025e-04 0.0000000000000000e+00  -2.3446244392204410e-04 6.0578882999772052e-04 0.0000000000000000e+00  -1.3287815372183895e-04 3.2305503766215035e-04 0.0000000000000000e+00  0.0000000000000000e+00 0.0000000000000000e+00 0.0000000000000000e+00  0.0000000000000000e+00 0.0000000000000000e+00 0.0000000000000000e+00  3.2598814488098415e-04 7.2622720630446664e-04 0.0000000000000000e+00  5.3327125956098142e-04 1.3741416362355278e-03 0.0000000000000000e+00  5.3114399443328526e-04 1.8631085656854146e-03 0.0000000000000000e+00  2.9348179966047478e-04 2.1156758550678416e-03 0.0000000000000000e+00  -3.1322890523580610e-04 1.7221566433785489e-03 0.0000000000000000e+00  -5.9135856486710551e-04 8.9902198813089597e-04 0.0000000000000000e+00  -4.8742878661098949e-04 3.5870765825939435e-05 0.0000000000000000e+00  -2.2185423310252359e-04 -4.4423127255204962e-04 0.0000000000000000e+00  4.6903335986454514e-05 -5.4126709973649110e-04 0.0000000000000000e+00  2.8777285116302439e-04 -3.8639673171107081e-04 0.0000000000000000e+00  4.6984061246658945e-04 4.2142335706756675e-05 0.0000000000000000e+00  5.3526030806885663e-04 7.6547231562648025e-04 0.0000000000000000e+00  3.8906500289372401e-04 1.5145173508811208e-03 0.0000000000000000e+00  -1.2747160413605923e-04 1.8830933861399624e-03 0.0000000000000000e+00  -4.3679198591621717e-04 1.7159721162350165e-03 0.0000000000000000e+00  -4.8745302349333819e-04 1.2847587142815968e-03 0.0000000000000000e+00  -3.0859025005976323e-04 6.8354441634222102e-04 0.0000000000000000e+00  0.0000000000000000e+00 0.0000000000000000e+00 0.0000000000000000e+00  0.0000000000000000e+00 0.0000000000000000e+00 0.0000000000000000e+00  9.7681677620053346e-04 1.4255887542860054e-03 0.0000000000000000e+00  1.6339420850289390e-03 2.7495302261121768e-03 0.0000000000000000e+00  1.6611987267841064e-03 3.8333950479267579e-03 0.0000000000000000e+00  7.9245036494586009e-04 4.4486314412764422e-03 0.0000000000000000e+00  -3.7685692382434272e-04 2.6311835468960706e-03 0.0000000000000000e+00  -1.6650249143283002e-04 4.9371965714219027e-04 0.0000000000000000e+00  2.6745546253698164e-04 -5.4871950172898673e-04 0.0000000000000000e+00  3.0179311439789525e-04 -6.6846002348778903e-04 0.0000000000000000e+00  3.8736644213814634e-05 -7.0316857207889381e-04 0.0000000000000000e+00  -1.5942073271597336e-04 -8.0657782404858615e-04 0.0000000000000000e+00  -8.3325539161525897e-05 -3.7292041478161606e-04 0.0000000000000000e+00  4.1715496407462844e-04 3.6652750755745799e-04 0.0000000000000000e+00  5.8093697013607412e-04 2.1942098865682419e-03 0.0000000000000000e+00  -5.6663968114252451e-04 4.2544533814882031e-03 0.0000000000000000e+00  -1.6199768836296605e-03 3.6753161381598530e-03 0.0000000000000000e+00  -1.6585473711747179e-03 2.6437408362733170e-03 0.0000000000000000e+00  -1.0032165651148544e-03 1.3733586917470942e-03 0.0000000000000000e+00  0.0000000000000000e+00 0.0000000000000000e+00 0.0000000000000000e+00  0.0000000000000000e+00 0.0000000000000000e+00 0.0000000000000000e+00  2.9065250398023932e-03 2.5316273316695818e-03 0.0000000000000000e+00  5.2541959890332005e-03 5.0853612623122206e-03 0.0000000000000000e+00  6.3753617904745603e-03 7.6784172987617080e-03 0.0000000000000000e+00  5.3402980683625164e-03 1.0316959446610484e-02 0.0000000000000000e+00  3.4867832171911932e-03 4.4521009582368515e-03 0.0000000000000000e+00  3.7783460297577290e-03 -5.9630745744186978e-04 0.0000000000000000e+00  3.0229686066386889e-03 2.6752643631148230e-04 0.0000000000000000e+00  1.3956309915911078e-03 5.4524094564437889e-04 0.0000000000000000e+00  1.9582372262562015e-04 6.1292006649607490e-04 0.0000000000000000e+00  -9.9382016793408794e-04 6.0823925072809270e-04 0.0000000000000000e+00  -2.5742300539116801e-03 6.4081826667280431e-04 0.0000000000000000e+00  -3.9701146062726738e-03 -1.1597206687824183e-03 0.0000000000000000e+00  -3.8085737858936384e-03 3.6120474984357520e-03 0.0000000000000000e+00  -5.9065140311533688e-03 9.8992258177671953e-03 0.0000000000000000e+00  -6.8623522852159138e-03 7.4444893715223020e-03 0.0000000000000000e+00  -5.6053135192331615e-03 4.9579867673739380e-03 0.0000000000000000e+00  -3.0894192636075389e-03 2.4750979770143278e-03 0.0000000000000000e+00  0.0000000000000000e+00 0.0000000000000000e+00 0.0000000000000000e+00  0.0000000000000000e+00 0.0000000000000000e+00 0.0000000000000000e+00  7.0722072220247680e-03 3.5494420116089472e-03 0.0000000000000000e+00  1.3781375306952110e-02 7.2642509725626778e-03 0.0000000000000000e+00  1.9715939921567886e-02 1.1342100207205410e-02 0.0000000000000000e+00  2.4366623255309975e-02 1.6058736703140071e-02 0.0000000000000000e+00  2.3411132322497315e-02 5.3735078133906686e-03 0.0000000000000000e+00  2.4249014520167152e-02 -5.2091183453995401e-03 0.0000000000000000e+00  1.6662832603282943e-02 -3.9318041031961163e-03 0.0000000000000000e+00  8.2249780483504911e-03 -3.2380142479694982e-03 0.0000000000000000e+00  -5.3619979057420485e-04 -3.0990351238384373e-03 0.0000000000000000e+00  -9.3857386475851481e-03 -3.5370118026578704e-03 0.0000000000000000e+00  -1.8125558583369047e-02 -4.6802675425371967e-03 0.0000000000000000e+00  -2.6363077245051377e-02 -6.8500025039769522e-03 0.0000000000000000e+00  -2.5477416938479627e-02 4.5772532288491825e-03 0.0000000000000000e+00  -2.6090100632576177e-02 1.6094515659644731e-02 0.0000000000000000e+00  -2.0956730490787778e-02 1.1340865358726969e-02 0.0000000000000000e+00  -1.4587724648410443e-02 7.2578583295982158e-03 0.0000000000000000e+00  -7.4698415120205272e-03 3.5457196878403634e-03 0.0000000000000000e+00  0.0000000000000000e+00 0.0000000000000000e+00 0.0000000000000000e+00  0.0000000000000000e+00 0.0000000000000000e+00 0.0000000000000000e+00  1.2691250255046327e-02 3.9060316393788042e-03 0.0000000000000000e+00  2.5408895399912538e-02 7.9914011519423515e-03 0.0000000000000000e+00  3.8195335915335880e-02 1.2451249794535546e-02 0.0000000000000000e+00  5.1138275030372493e-02 1.7511580916507102e-02 0.0000000000000000e+00  5.1255887132699726e-02 5.0308791141401230e-03 0.0000000000000000e+00  5.1311958037659436e-02 -7.6090116333027893e-03 0.0000000000000000e+00  3.3707144324916297e-02 -5.7966165547709350e-03 0.0000000000000000e+00  1.6346201115129202e-02 -4.8016676381533226e-03 0.0000000000000000e+00  -9.1542532489084913e-04 -4.5029314109137171e-03 0.0000000000000000e+00  -1.8216171517731097e-02 -4.8608684559544261e-03 0.0000000000000000e+00  -3.5684595909327814e-02 -5.8951541656147959e-03 0.0000000000000000e+00  -5.3421480608326750e-02 -7.6622522285969916e-03 0.0000000000000000e+00  -5.3583153270216483e-02 5.0053199051300562e-03 0.0000000000000000e+00  -5.3673969526178297e-02 1.7593159039937450e-02 0.0000000000000000e+00  -3.9994649301596762e-02 1.2554965204996799e-02 0.0000000000000000e+00  -2.6566185428340137e-02 8.0744146549881889e-03 0.0000000000000000e+00  -1.3258390500824866e-02 3.9507392629328907e-03 0.0000000000000000e+00  0.0000000000000000e+00 0.0000000000000000e+00 0.0000000000000000e+00  0.0000000000000000e+00 0.0000000000000000e+00 0.0000000000000000e+00  1.8206422085960509e-02 3.5454432416565213e-03 0.0000000000000000e+00  3.6764025098461744e-02 7.2209901642814860e-03 0.0000000000000000e+00  5.6053189376933044e-02 1.1158992390394950e-02 0.0000000000000000e+00  7.6517207786170591e-02 1.5493757026686365e-02 0.0000000000000000e+00  7.7230354975973109e-02 4.8520588442834680e-03 0.0000000000000000e+00  7.6528356770183839e-02 -5.7311489969161973e-03 0.0000000000000000e+00  4.9772012860570196e-02 -4.3905430322263668e-03 0.0000000000000000e+00  2.4067942604407849e-02 -3.5796221804085902e-03 0.0000000000000000e+00  -1.1390578393099774e-03 -3.2794303517714677e-03 0.0000000000000000e+00  -2.6375440956904850e-02 -3.4787073206110548e-03 0.0000000000000000e+00  -5.2168009115394813e-02 -4.1782312915862874e-03 0.0000000000000000e+00  -7.9076735412046406e-02 -5.3882101852623663e-03 0.0000000000000000e+00  -7.9864338081945083e-02 5.3199732887310161e-03 0.0000000000000000e+00  -7.9202844983330203e-02 1.6038236926992171e-02 0.0000000000000000e+00  -5.8030729540838898e-02 1.1538615160701112e-02 0.0000000000000000e+00  -3.8062827020337510e-02 7.4635505714307285e-03 0.0000000000000000e+00  -1.8849752772427810e-02 3.6640411549023321e-03 0.0000000000000000e+00  0.0000000000000000e+00 0.0000000000000000e+00 0.0000000000000000e+00  0.0000000000000000e+00 0.0000000000000000e+00 0.0000000000000000e+00  2.2319480177186570e-02 2.6644936069071478e-03 0.0000000000000000e+00  4.5196372760991019e-02 5.4009355019859311e-03 0.0000000000000000e+00  6.9216770922883239e-02 8.2799541473831777e-03 0.0000000000000000e+00  9.5024949241056755e-02 1.1368804585935142e-02 0.0000000000000000e+00  9.6112873298749998e-02 4.8122980734701263e-03 0.0000000000000000e+00  9.5047419816549503e-02 -1.7338528343711667e-03 0.0000000000000000e+00  6.1618756624901933e-02 -8.7114549136328950e-04 0.0000000000000000e+00  2.9798747354323165e-02 -3.1384115596538718e-04 0.0000000000000000e+00  -1.2461375571471305e-03 -5.7281341423281543e-05 0.0000000000000000e+00  -3.2309368007993076e-02 -9.4848829523018754e-05 0.0000000000000000e+00  -6.4184355624828091e-02 -4.1886549827616011e-04 0.0000000000000000e+00  -9.7699197136773053e-02 -1.0188873733764931e-03 0.0000000000000000e+00  -9.8827306629470826e-02 5.5661275692497078e-03 0.0000000000000000e+00  -9.7770271704606559e-02 1.2133190544955885e-02 0.0000000000000000e+00  -7.1251570706636916e-02 8.8240719757174124e-03 0.0000000000000000e+00  -4.6541026647659696e-02 5.7504736262658177e-03 0.0000000000000000e+00  -2.2988203145836782e-02 2.8354497176237550e-03 0.0000000000000000e+00  0.0000000000000000e+00 0.0000000000000000e+00 0.0000000000000000e+00  0.0000000000000000e+00 0.0000000000000000e+00 0.0000000000000000e+00  2.4204637502712897e-02 1.4957209441114516e-03 0.0000000000000000e+00  4.9058040404841935e-02 3.0105989967821223e-03 0.0000000000000000e+00  7.5233864516917492e-02 4.5616420376638515e-03 0.0000000000000000e+00  1.0345579032050049e-01 6.1613897720005579e-03 0.0000000000000000e+00  1.0470020794405635e-01 4.8230530865545074e-03 0.0000000000000000e+00  1.0346131222475108e-01 3.4940679468585859e-03 0.0000000000000000e+00  6.7026633547006553e-02 3.8710681051939474e-03 0.0000000000000000e+00  3.2425748536360252e-02 4.1549627398400702e-03 0.0000000000000000e+00  -1.2805601871690667e-03 4.3420146140422892e-03 0.0000000000000000e+00  -3.4998300816797688e-02 4.4353883718600516e-03 0.0000000000000000e+00  -6.9633026758223665e-02 4.4449387436563039e-03 0.0000000000000000e+00  -1.0612293392081411e-01 4.3877847240590658e-03 0.0000000000000000e+00  -1.0738656177506380e-01 5.7013306237279297e-03 0.0000000000000000e+00  -1.0615158836866670e-01 7.0011876232318297e-03 0.0000000000000000e+00  -7.7241300875386568e-02 5.1674324381568082e-03 0.0000000000000000e+00  -5.0389281819973805e-02 3.4029878909158872e-03 0.0000000000000000e+00  -2.4868137399783892e-02 1.6885125130373338e-03 0.0000000000000000e+00  -4.0615585574444659e-10 0.0000000000000000e+00 0.0000000000000000e+00  0.0000000000000000e+00 0.0000000000000000e+00 0.0000000000000000e+00  2.3496287645717664e-02 2.5026460994992308e-04 0.0000000000000000e+00  4.7633238452508893e-02 4.7554521307062171e-04 0.0000000000000000e+00  7.3071812486576904e-02 6.4843189779755840e-04 0.0000000000000000e+00  1.0051331479731743e-01 7.3661916160256227e-04 0.0000000000000000e+00  1.0172904823401561e-01 4.8882086713106215e-03 0.0000000000000000e+00  1.0051025104039342e-01 9.0478268187840528e-03 0.0000000000000000e+00  6.5094676818896843e-02 8.9858979131118427e-03 0.0000000000000000e+00  3.1472400950080831e-02 9.0114061180273115e-03 0.0000000000000000e+00  -1.2697585964445192e-03 9.1161753228964013e-03 0.0000000000000000e+00  -3.4017935037321631e-02 9.3010220907729126e-03 0.0000000000000000e+00  -6.7657965808657961e-02 9.5755891714557288e-03 0.0000000000000000e+00  -1.0310218223894198e-01 9.9585132105518490e-03 0.0000000000000000e+00  -1.0431762732831348e-01 5.7561393006136715e-03 0.0000000000000000e+00  -1.0309030174707949e-01 1.5435535197512770e-03 0.0000000000000000e+00  -7.4998894027948473e-02 1.2335777631648480e-03 0.0000000000000000e+00  -4.8915095442067034e-02 8.5615745430703283e-04 0.0000000000000000e+00  -2.4136302263402430e-02 4.3773816375415018e-04 0.0000000000000000e+00  0.0000000000000000e+00 0.0000000000000000e+00 0.0000000000000000e+00  0.0000000000000000e+00 0.0000000000000000e+00 0.0000000000000000e+00  2.0226725368639592e-02 -8.9529891736249835e-04 0.0000000000000000e+00  4.1005005101653572e-02 -1.8500176225144658e-03 0.0000000000000000e+00  6.2903080376375944e-02 -2.9261228099708549e-03 0.0000000000000000e+00  8.6517813390642781e-02 -4.1904874884534085e-03 0.0000000000000000e+00  8.7558778399566925e-02 4.9925661288815482e-03 0.0000000000000000e+00  8.6510521328155926e-02 1.4180950538132687e-02 0.0000000000000000e+00  5.5985379075573792e-02 1.3750845803551829e-02 0.0000000000000000e+00  2.6996575812642146e-02 1.3550648345737082e-02 0.0000000000000000e+00  -1.2350251164401477e-03 1.3569835073096954e-02 0.0000000000000000e+00  -2.9468443978950144e-02 1.3807536140230232e-02 0.0000000000000000e+00  -5.8462433519642691e-02 1.4272506397840268e-02 0.0000000000000000e+00  -8.8995499354778643e-02 1.4983217086147985e-02 0.0000000000000000e+00  -9.0017646063996565e-02 5.7409313825704392e-03 0.0000000000000000e+00  -8.8949934681050169e-02 -3.5097701124990059e-03 0.0000000000000000e+00  -6.4727775649738514e-02 -2.4303842342780790e-03 0.0000000000000000e+00  -4.2221850368920948e-02 -1.5265858116420244e-03 0.0000000000000000e+00  -2.0834930001034910e-02 -7.3569104264803844e-04 0.0000000000000000e+00  0.0000000000000000e+00 0.0000000000000000e+00 0.0000000000000000e+00  0.0000000000000000e+00 0.0000000000000000e+00 0.0000000000000000e+00  1.4749000202499399e-02 -1.8032071008239094e-03 0.0000000000000000e+00  2.9900728940927799e-02 -3.6903299254100103e-03 0.0000000000000000e+00  4.5868120732854824e-02 -5.7478062805811341e-03 0.0000000000000000e+00  6.3085736789391569e-02 -8.0671234981003828e-03 0.0000000000000000e+00  6.3842438326797715e-02 5.1213989465363338e-03 0.0000000000000000e+00  6.3079071290911184e-02 1.8312912574662107e-02 0.0000000000000000e+00  4.0726375131682188e-02 1.7596177522575553e-02 0.0000000000000000e+00  1.9490261292983698e-02 1.7212020332916446e-02 0.0000000000000000e+00  -1.1928882207458901e-03 1.7149061869160501e-02 0.0000000000000000e+00  -2.1874746012034003e-02 1.7404547249346855e-02 0.0000000000000000e+00  -4.3106699775674842e-02 1.7985971322963912e-02 0.0000000000000000e+00  -6.5451574435447080e-02 1.8911141806374328e-02 0.0000000000000000e+00  -6.6172076431986276e-02 5.6687513719836675e-03 0.0000000000000000e+00  -6.5377498146153859e-02 -7.5796286572116624e-03 0.0000000000000000e+00  -4.7593877156427593e-02 -5.3917996338651375e-03 0.0000000000000000e+00  -3.1053932383483401e-02 -3.4575630068424787e-03 0.0000000000000000e+00  -1.5326358063409167e-02 -1.6881955467250539e-03 0.0000000000000000e+00  0.0000000000000000e+00 0.0000000000000000e+00 0.0000000000000000e+00  0.0000000000000000e+00 0.0000000000000000e+00 0.0000000000000000e+00  7.6619059613416618e-03 -2.3754712970810369e-03 0.0000000000000000e+00  1.5536698085281148e-02 -4.8493233721065600e-03 0.0000000000000000e+00  2.3842318984879030e-02 -7.5224645554766260e-03 0.0000000000000000e+00  3.2807055778118530e-02 -1.0500840497115256e-02 0.0000000000000000e+00  3.3207374139955018e-02 5.2609721414116056e-03 0.0000000000000000e+00  3.2806477754187283e-02 2.1023546753153610e-02 0.0000000000000000e+00  2.0995373081709359e-02 2.0108963261579266e-02 0.0000000000000000e+00  9.7736621760360545e-03 1.9590618383001294e-02 0.0000000000000000e+00  -1.1556913406032339e-03 1.9454560405255884e-02 0.0000000000000000e+00  -1.2081745779811203e-02 1.9697158454158609e-02 0.0000000000000000e+00  -2.3293401804288679e-02 2.0324744092926523e-02 0.0000000000000000e+00  -3.5085849907944847e-02 2.1353719484667730e-02 0.0000000000000000e+00  -3.5433198215544033e-02 5.5537668237130994e-03 0.0000000000000000e+00  -3.4988173017010925e-02 -1.0249721126439945e-02 0.0000000000000000e+00  -2.5488024909584090e-02 -7.3386008845