<?xml version="1.0"?>
<VTKFile type="UnstructuredGrid"  version="0.1"  >
<UnstructuredGrid>
<Piece  NumberOfPoints="589" NumberOfCells="1080">
<Points>
<DataArray  type="Float64"  NumberOfComponents="3"  format="ascii">-9 0 0  -8 0 0  -7 0 0  -6 0 0  -5 0 0  -4 0 0  -3 0 0  -2 0 0  -1 0 0  0 0 0  1 0 0  2 0 0  3 0 0  4 0 0  5 0 0  6 0 0  7 0 0  8 0 0  9 0 0  -9 2 0  -8.000006494616027 1.999990285972078 0  -7.000013608260268 1.999981771225737 0  -6.000022814455976 1.999975429966034 0  -5.000037496908053 1.999971691180213 0  -4.000022216204549 1.999978858875176 0  -3.000006524163315 1.999985660430835 0  -1.999998877556237 1.999992047262876 0  -0.999997611192865 1.999997099572478 0  -3.355128767666707e-07 1.999999330994888 0  0.9999966352997418 1.999997837841172 0  1.999996874239778 1.999992997382354 0  3.000002771891833 1.999987078516292 0  4.000015044921391 1.999980806216175 0  5.000032798128674 1.999978435979846 0  6.00001972134555 1.999979221559123 0  7.000011711641232 1.999983927512936 0  8.000005591703195 1.999991287477904 0  9 2 0  -9 4 0  -8.00001051299116 3.999975775354056 0  -7.000018846337924 3.999954848905269 0  -6.000023723828569 3.999940450254512 0  -5.000025403804147 3.999935656108723 0  -4.000003166755417 3.999939071959537 0  -2.999988258794502 3.999958254807741 0  -1.99998437443689 3.999983199499099 0  -0.999990055816254 4.000003276616339 0  -9.446335307041511e-07 4.000011410609591 0  0.9999879238188072 4.000005205028153 0  1.999981415419543 3.999988330981685 0  2.999984393491744 3.999965504670987 0  3.999998337300315 3.999942635321708 0  5.00001971567491 3.999935267550856 0  6.000019174275394 3.999942761961076 0  7.000015864089349 3.99995723953931 0  8.000009070254887 3.999977165307546 0  9 4 0  -9 6 0  -8.000023249260805 5.999948074577654 0  -7.000037907780201 5.999901817825599 0  -6.000037423264954 5.999867054865496 0  -5.000019922869922 5.999849362456849 0  -3.999976533210455 5.99987786032474 0  -2.999956826869761 5.999937231729243 0  -1.999964692970416 5.999999433902616 0  -0.9999841914523586 6.000033995120842 0  -3.888685009090779e-06 6.000040972499927 0  0.9999784318418243 6.000029889134336 0  1.999964965073957 5.99999915889105 0  2.999959886871136 5.999947231669903 0  3.999970036851154 5.999893456981873 0  5.00000682911925 5.999867004617095 0  6.000029702300675 5.99987837192126 0  7.000033950424601 5.999908761354483 0  8.000021653462559 5.999951409855784 0  9 6 0  -9 8 0  -8.000070340787532 7.999897711259305 0  -7.000117536722745 7.999802824630767 0  -6.000119183521112 7.999725390142483 0  -5.000056148338505 7.999681963206642 0  -3.999972085589414 7.999813234260714 0  -2.999987791778601 7.999967425112173 0  -2.000019541416629 8.000042458245471 0  -1.000022363462731 8.000050866205507 0  -3.659021610576165e-06 8.000053292057585 0  1.000010367289934 8.000060831100296 0  2.000004647092221 8.000029755982148 0  2.999968272961947 7.999976859913858 0  3.999955955853983 7.999845516131185 0  5.000038115850349 7.999697274552972 0  6.000114721260788 7.999737911209688 0  7.000118206489517 7.999811260508008 0  8.000071653609417 7.999901898089886 0  9 8 0  -9 10 0  -8.000209950241858 9.999817788985141 0  -7.000379296450776 9.99963409950003 0  -6.000459609195451 9.999447821597197 0  -5.000383464432554 9.999258717890743 0  -4.000250011301478 9.999682965926239 0  -3.000272261858001 10.00004765939803 0  -2.000218457047508 9.999984388693752 0  -1.000101354309533 9.999964088122958 0  -1.524675110518764e-05 9.999959138529157 0  1.000070080509525 9.999959564640871 0  2.000183587956151 9.999957456393076 0  3.000283556387969 10.00008812173215 0  4.000271057284625 9.999744678639811 0  5.000421793500679 9.999291383678189 0  6.0004920903343 9.999466700490265 0  7.000402532729061 9.999644662630072 0  8.00022200299275 9.999822564503384 0  9 10 0  -9 12 0  -8.000511690409308 11.99974388653605 0  -7.000996724050113 11.99947590687426 0  -6.00142496464877 11.99918186818492 0  -5.001759036165211 11.99884197369085 0  -4.001690609188023 11.99961637929148 0  -3.001752701250563 12.00038310904562 0  -2.001206370999618 12.00028991746793 0  -1.000597926316384 12.00023917337851 0  3.416386468344559e-05 12.0002287433283 0  1.000672767141581 12.00026018354504 0  2.001303490946477 12.0003427451481 0  3.001897907248785 12.00049962629606 0  4.001832579479912 11.99967510433178 0  5.001875951117802 11.99884379524199 0  6.001508235231737 11.99918513961543 0  7.00105042657431 11.99947844771134 0  8.000538049339999 11.99974518427972 0  9 12 0  -9 14 0  -8.00091946757485 13.99971756893053 0  -7.001840379059243 13.99942215816308 0  -6.002765380135075 13.9990996415296 0  -5.003700235193963 13.99873364427329 0  -4.003709687975906 13.99964003403017 0  -3.00371567791576 14.00055788830826 0  -2.002443855105618 14.00042587690485 0  -1.001189571101685 14.00035319756169 0  5.765443105436318e-05 14.00033104583673 0  1.001307826875889 14.00035653574428 0  2.002570253826325 14.00043107041627 0  3.003852269662574 14.00055871422313 0  4.003862398382777 13.9996431493938 0  5.003867924404332 13.99873329060014 0  6.00288334248621 13.99909618445143 0  7.001915770382498 13.99941879416495 0  8.000956270559856 13.99971563807028 0  9 14 0  -9 16 0  -8.001320662903042 15.99974325027404 0  -7.002666347955549 15.99947700240971 0  -6.004064242725219 15.99919159216067 0  -5.005545972298304 15.99887717842863 0  -4.005598492887215 15.9996521869036 0  -3.005549166102727 16.00042310915686 0  -2.003613266488023 16.00032515368183 0  -1.001753897850231 16.00026563107738 0  6.938610940084884e-05 16.00024325079892 0  1.001894828751352 16.00025716989796 0  2.003760694889589 16.00030741902217 0  3.005707699884956 16.00039470911138 0  4.005763446909143 15.99961967528159 0  5.005714747358554 15.99884404737592 0  6.004188028177283 15.99916867941642 0  7.002747382299856 15.99946242322743 0  8.001360714589598 15.99973613514412 0  9 16 0  -9 18 0  -8.001620916989943 17.99980694538205 0  -7.003281953835852 17.99960858118876 0  -6.005025316249777 17.99939969275279 0  -5.006897367967749 17.99917527962105 0  -4.006976872433298 17.99965530627705 0  -3.006900539269752 18.00013471723425 0  -2.00447921952447 18.00007122988614 0  -1.002175137220565 18.00003004569881 0  7.242912494807686e-05 18.00001080199609 0  1.002321260941565 18.00001301529917 0  2.004629058538685 18.00003611233606 0  3.007056260812468 18.00007931612622 0  4.007137221499581 17.99960209179042 0  5.007060127247506 17.99912627546255 0  6.005145699037293 17.99936492837232 0  7.003361373463543 17.99958630347615 0  8.001660371311825 17.99979606541004 0  9 18 0  -9 20 0  -8.001759902429871 19.9998918657785 0  -7.003566696574104 19.99978227772096 0  -6.005469066359739 19.99966993837706 0  -5.007519281272558 19.99955385894928 0  -4.007610112319786 19.99965567731905 0  -3.007520681385613 19.99975682417896 0  -2.004879230334705 19.99972848540892 0  -1.002371742737318 19.99970710282919 0  7.03459789893138e-05 19.99969292788626 0  1.002513116698718 19.99968571496058 0  2.00502261518498 19.99968473865523 0  3.007667309457244 19.9996887505429 0  4.007758465620448 19.99959332752097 0  5.007668521480779 19.99949887873863 0  6.005580159022062 19.99963034544581 0  7.003640348568689 19.99975666351085 0  8.001796603410025 19.99987929256366 0  8.999999999995099 19.99999999999313 0  -9 22 0  -8.001710591301109 21.99998258655964 0  -7.003467584320268 21.99996697605571 0  -6.005318838296875 21.99995514745089 0  -5.007315116053924 21.999949435352 0  -4.007404109133004 21.99965234047192 0  -3.007315993317846 21.99935450630763 0  -2.004746434618626 21.9993580477943 0  -1.002308190802791 21.99935547282381 0  6.552738764649064e-05 21.99934734881884 0  1.002439481686302 21.99933360006156 0  2.004878409671579 21.99931351976078 0  3.00744902994059 21.99928575805039 0  4.0075366924439 21.99959052417634 0  5.007447066146586 21.99989586005871 0  6.005417715326017 21.99991634854852 0  7.003533446331054 21.99994176428228 0  8.001743500416968 21.99997017675321 0  9 22 0  -9 24 0  -8.001474923851493 24.00006609617132 0  -7.002989842112133 24.00013654598058 0  -6.004585877089191 24.00021588431855 0  -5.006306324936266 24.00030901891661 0  -4.006383089332165 23.99964559407166 0  -3.006307604406976 23.9989815118347 0  -2.004091336320533 23.99901195910747 0  -1.001987901600776 23.99902592835913 0  5.983324875101766e-05 23.99902415666427 0  1.002107461671647 23.99900669043393 0  2.004210557821603 23.99897288792732 0  3.006426198906949 23.99892141412719 0  4.00649948035825 23.99959218630667 0  5.006420985649889 24.00026329959725 0  6.004672356855631 24.0001826259235 0  7.003047712402597 24.00011486488166 0  8.001503916417649 24.00005540321666 0  9 24 0  -9 26 0  -8.001078421522758 26.00013220655679 0  -7.002185962477327 26.00027057084956 0  -6.003352532412926 26.00042143437043 0  -5.004609485881184 26.00059151787814 0  -4.004666114375615 25.99963596700166 0  -3.004611805140007 25.99867991217713 0  -2.002987751291083 25.99873151803697 0  -1.00144610338571 25.99875908080765 0  5.468598513277144e-05 25.99876347190992 0  1.001555115297878 25.99874484733818 0  2.003095663358187 25.99870264959544 0  3.004717821795884 25.99863560182016 0  4.004768671012549 25.99959690364409 0  5.004709519908292 26.00055836883833 0  6.003428485315237 26.00039725421758 0  7.002237023073104 26.00025477522119 0  8.001104072251016 26.00012440591235 0  9 26 0  -9 28 0  -8.000564451792233 28.00017370355216 0  -7.001144162259745 28.00035460877188 0  -6.001754833980849 28.00055010358601 0  -5.002412870595782 28.0007679541137 0  -4.002443971755374 27.99962439015629 0  -3.002416479815285 27.99848056727416 0  -2.001557330799607 27.99854696836188 0  -1.000742133275175 27.99858463436737 0  5.110355267094817e-05 27.99859455831754 0  1.000843814904981 27.99857700244966 0  2.001657414208884 27.99853149891057 0  3.00251382763818 27.99845684825152 0  4.002537103026448 27.99960364661391 0  5.002503013726048 28.00075052201604 0  6.00182366489598 28.00053736127339 0  7.001190616852267 28.00034627132644 0  8.00058
[...]
<PointData  Vectors="f_44-2"> 
<DataArray  type="Float64"  Name="f_44-2"  NumberOfComponents="3" format="ascii">0.0000000000000000e+00 0.0000000000000000e+00 0.0000000000000000e+00  0.0000000000000000e+00 0.0000000000000000e+00 0.0000000000000000e+00  0.0000000000000000e+00 0.0000000000000000e+00 0.0000000000000000e+00  0.0000000000000000e+00 0.0000000000000000e+00 0.0000000000000000e+00  0.0000000000000000e+00 0.0000000000000000e+00 0.0000000000000000e+00  0.0000000000000000e+00 0.0000000000000000e+00 0.0000000000000000e+00  0.0000000000000000e+00 0.0000000000000000e+00 0.0000000000000000e+00  0.0000000000000000e+00 0.0000000000000000e+00 0.0000000000000000e+00  0.0000000000000000e+00 0.0000000000000000e+00 0.0000000000000000e+00  0.0000000000000000e+00 0.0000000000000000e+00 0.0000000000000000e+00  0.0000000000000000e+00 0.0000000000000000e+00 0.0000000000000000e+00  0.0000000000000000e+00 0.0000000000000000e+00 0.0000000000000000e+00  0.0000000000000000e+00 0.0000000000000000e+00 0.0000000000000000e+00  0.0000000000000000e+00 0.0000000000000000e+00 0.0000000000000000e+00  0.0000000000000000e+00 0.0000000000000000e+00 0.0000000000000000e+00  0.0000000000000000e+00 0.0000000000000000e+00 0.0000000000000000e+00  0.0000000000000000e+00 0.0000000000000000e+00 0.0000000000000000e+00  0.0000000000000000e+00 0.0000000000000000e+00 0.0000000000000000e+00  0.0000000000000000e+00 0.0000000000000000e+00 0.0000000000000000e+00  0.0000000000000000e+00 0.0000000000000000e+00 0.0000000000000000e+00  -3.3696104970856637e-05 -4.7819128174734719e-05 0.0000000000000000e+00  -7.1056558212934744e-05 -9.0203523832770580e-05 0.0000000000000000e+00  -1.1997706889207765e-04 -1.2279897403346898e-04 0.0000000000000000e+00  -1.9790273265112064e-04 -1.4388623096326487e-04 0.0000000000000000e+00  -1.2213994916999849e-04 -1.0636637104811848e-04 0.0000000000000000e+00  -4.2935438934835650e-05 -7.3176542156395358e-05 0.0000000000000000e+00  -2.5770249476577334e-06 -4.3093655819891763e-05 0.0000000000000000e+00  7.7403563397843810e-06 -1.9441600473469534e-05 0.0000000000000000e+00  -6.1090586302374555e-07 -9.2121473148729832e-06 0.0000000000000000e+00  -1.0173425897852513e-05 -1.6606164544632121e-05 0.0000000000000000e+00  -3.9829681315531196e-06 -3.9998824211012963e-05 0.0000000000000000e+00  2.9569041821087569e-05 -6.9062648433763183e-05 0.0000000000000000e+00  9.4508615518387545e-05 -1.0113403447584969e-04 0.0000000000000000e+00  1.8779420058088930e-04 -1.1690604678885200e-04 0.0000000000000000e+00  1.1418403467047446e-04 -1.0946716943410660e-04 0.0000000000000000e+00  6.7920329211263976e-05 -8.3415266741281366e-05 0.0000000000000000e+00  3.2337214127887980e-05 -4.4876518481634107e-05 0.0000000000000000e+00  0.0000000000000000e+00 0.0000000000000000e+00 0.0000000000000000e+00  0.0000000000000000e+00 0.0000000000000000e+00 0.0000000000000000e+00  -5.2733498706746260e-05 -1.1737187822796665e-04 0.0000000000000000e+00  -9.5873024017770867e-05 -2.1955885177299295e-04 0.0000000000000000e+00  -1.2393270802939736e-04 -2.9162857707023794e-04 0.0000000000000000e+00  -1.3831161613060401e-04 -3.1919777879001594e-04 0.0000000000000000e+00  -3.0519018429037400e-05 -3.0343638572097542e-04 0.0000000000000000e+00  4.3759178806580740e-05 -2.1383606553061787e-04 0.0000000000000000e+00  6.7302890686176195e-05 -9.7065140500122272e-05 0.0000000000000000e+00  4.6806244633457174e-05 -3.5109599745959629e-06 0.0000000000000000e+00  2.1530719462517486e-06 3.3944074011005270e-05 0.0000000000000000e+00  -4.3511723749272065e-05 3.8779225208037785e-06 0.0000000000000000e+00  -6.7281727989321693e-05 -7.6953227746718125e-05 0.0000000000000000e+00  -4.6249572555184135e-05 -1.8674415153938307e-04 0.0000000000000000e+00  2.6317049252781655e-05 -2.9792646384973153e-04 0.0000000000000000e+00  1.3280675570128995e-04 -3.3814580252837262e-04 0.0000000000000000e+00  1.1898053192425996e-04 -2.9338289020087825e-04 0.0000000000000000e+00  9.3116633238558670e-05 -2.1677213752260954e-04 0.0000000000000000e+00  5.1688438191771202e-05 -1.1509813134589763e-04 0.0000000000000000e+00  0.0000000000000000e+00 0.0000000000000000e+00 0.0000000000000000e+00  0.0000000000000000e+00 0.0000000000000000e+00 0.0000000000000000e+00  -1.1014040433690905e-04 -2.4763882092259629e-04 0.0000000000000000e+00  -1.8100861164747317e-04 -4.6935977296280550e-04 0.0000000000000000e+00  -1.8261197219530430e-04 -6.3843800154678295e-04 0.0000000000000000e+00  -1.0619030636101112e-04 -7.2903034787216085e-04 0.0000000000000000e+00  9.9686631300637208e-05 -5.9825437302313831e-04 0.0000000000000000e+00  1.9614571627231135e-04 -3.2351724777125165e-04 0.0000000000000000e+00  1.6587707300665068e-04 -3.5355402337363095e-05 0.0000000000000000e+00  8.1656149725923695e-05 1.2528798849959999e-04 0.0000000000000000e+00  -3.9706103567999189e-06 1.5763691748823716e-04 0.0000000000000000e+00  -8.0498347215656645e-05 1.0466138231584660e-04 0.0000000000000000e+00  -1.3731789328464290e-04 -4.1139381997283855e-05 0.0000000000000000e+00  -1.5510017814620103e-04 -2.8707022416100871e-04 0.0000000000000000e+00  -1.0181327499386817e-04 -5.4262155473564888e-04 0.0000000000000000e+00  7.6257118487180515e-05 -6.7026301476781722e-04 0.0000000000000000e+00  1.7192787331870047e-04 -6.0466838559519178e-04 0.0000000000000000e+00  1.8056345470593473e-04 -4.5035694267152993e-04 0.0000000000000000e+00  1.1207051219828851e-04 -2.3899222696358583e-04 0.0000000000000000e+00  0.0000000000000000e+00 0.0000000000000000e+00 0.0000000000000000e+00  0.0000000000000000e+00 0.0000000000000000e+00 0.0000000000000000e+00  -3.2445880351472379e-04 -4.8146130211144586e-04 0.0000000000000000e+00  -5.4316043692111788e-04 -9.2960702017779871e-04 0.0000000000000000e+00  -5.5336812787278706e-04 -1.2990682476639915e-03 0.0000000000000000e+00  -2.6592996034753905e-04 -1.5147354084498351e-03 0.0000000000000000e+00  1.2501574653911869e-04 -9.1004453096731183e-04 0.0000000000000000e+00  6.0383017155120207e-05 -1.9967036847845678e-04 0.0000000000000000e+00  -7.8514002433478577e-05 1.4810971963654187e-04 0.0000000000000000e+00  -8.4794925341525926e-05 1.9034018878902524e-04 0.0000000000000000e+00  7.1311450021109738e-06 2.0294543893767218e-04 0.0000000000000000e+00  7.7062667458601872e-05 2.3734088237581554e-04 0.0000000000000000e+00  5.4191045313001334e-05 9.0038184772210371e-05 0.0000000000000000e+00  -1.1082515375717909e-04 -1.6214179029184570e-04 0.0000000000000000e+00  -1.6173492891899109e-04 -7.8046513154897434e-04 0.0000000000000000e+00  2.2805350802218411e-04 -1.4775348079474674e-03 0.0000000000000000e+00  5.7292819795714894e-04 -1.2706497883610585e-03 0.0000000000000000e+00  5.7642309852930099e-04 -9.1202325337825846e-04 0.0000000000000000e+00  3.4667536726260088e-04 -4.7329634986365091e-04 0.0000000000000000e+00  0.0000000000000000e+00 0.0000000000000000e+00 0.0000000000000000e+00  0.0000000000000000e+00 0.0000000000000000e+00 0.0000000000000000e+00  -9.6122735781281404e-04 -8.4807881896245107e-04 0.0000000000000000e+00  -1.7389779360149995e-03 -1.7038708991690833e-03 0.0000000000000000e+00  -2.1141135280668753e-03 -2.5736836788054175e-03 0.0000000000000000e+00  -1.7802161145724685e-03 -3.4603412004009125e-03 0.0000000000000000e+00  -1.1675532847653075e-03 -1.5233859097398997e-03 0.0000000000000000e+00  -1.2547452113915005e-03 1.4291633024087898e-04 0.0000000000000000e+00  -9.9248573689727083e-04 -1.3571162300262922e-04 0.0000000000000000e+00  -4.4597829522460424e-04 -2.2519757204698620e-04 0.0000000000000000e+00  -3.9914990009128866e-05 -2.4706006171627717e-04 0.0000000000000000e+00  3.6380525522376663e-04 -2.4608771260841648e-04 0.0000000000000000e+00  8.9929112225138738e-04 -2.5929176058712283e-04 0.0000000000000000e+00  1.3763578852462278e-03 3.3994640483563646e-04 0.0000000000000000e+00  1.3257679426965071e-03 -1.2653441385531605e-03 0.0000000000000000e+00  2.0293206986507586e-03 -3.3809283898905305e-03 0.0000000000000000e+00  2.3382042784938334e-03 -2.5426356926801265e-03 0.0000000000000000e+00  1.9044668050102183e-03 -1.6935520387101261e-03 0.0000000000000000e+00  1.0484751997803588e-03 -8.4553531317921153e-04 0.0000000000000000e+00  0.0000000000000000e+00 0.0000000000000000e+00 0.0000000000000000e+00  0.0000000000000000e+00 0.0000000000000000e+00 0.0000000000000000e+00  -2.3292369086289648e-03 -1.1828522638634206e-03 0.0000000000000000e+00  -4.5409051472899507e-03 -2.4203828156101120e-03 0.0000000000000000e+00  -6.5023488949675088e-03 -3.7780211817346272e-03 0.0000000000000000e+00  -8.0486972424379487e-03 -5.3469659791575627e-03 0.0000000000000000e+00  -7.7450540459055844e-03 -1.8430231248074951e-03 0.0000000000000000e+00  -8.0197272261024900e-03 1.6246171612257553e-03 0.0000000000000000e+00  -5.4579072818076021e-03 1.2073450086785874e-03 0.0000000000000000e+00  -2.6320402032380258e-03 9.8498303427697062e-04 0.0000000000000000e+00  2.9117407306461388e-04 9.4704152116249264e-04 0.0000000000000000e+00  3.2398602983496282e-03 1.1009719613378766e-03 0.0000000000000000e+00  6.1535661725482041e-03 1.4903688490923378e-03 0.0000000000000000e+00  8.9071958958209085e-03 2.2242712863346135e-03 0.0000000000000000e+00  8.6068489122685561e-03 -1.6043678482086561e-03 0.0000000000000000e+00  8.8038644527846880e-03 -5.4653677970574015e-03 0.0000000000000000e+00  7.0678515273964078e-03 -3.8555817643641200e-03 0.0000000000000000e+00  4.9184671828544487e-03 -2.4694531499515867e-03 0.0000000000000000e+00  2.5183420219081275e-03 -1.2070043218402203e-03 0.0000000000000000e+00  0.0000000000000000e+00 0.0000000000000000e+00 0.0000000000000000e+00  0.0000000000000000e+00 0.0000000000000000e+00 0.0000000000000000e+00  -4.1620409139729126e-03 -1.2977983594187068e-03 0.0000000000000000e+00  -8.3349631429652845e-03 -2.6545360574577901e-03 0.0000000000000000e+00  -1.2535976044253256e-02 -4.1343205951783401e-03 0.0000000000000000e+00  -1.6797233393752366e-02 -5.8113726826594467e-03 0.0000000000000000e+00  -1.6851404026113837e-02 -1.7536139163872989e-03 0.0000000000000000e+00  -1.6868205031784354e-02 2.3560894568916274e-03 0.0000000000000000e+00  -1.0989885434831414e-02 1.7728388686530658e-03 0.0000000000000000e+00  -5.2120029578330675e-03 1.4593112445150174e-03 0.0000000000000000e+00  5.2173445107327491e-04 1.3753688947367689e-03 0.0000000000000000e+00  6.2639846489366859e-03 1.5082448217773451e-03 0.0000000000000000e+00  1.2063559052393353e-02 1.8650088702897043e-03 0.0000000000000000e+00  1.7960353041678468e-02 2.4649851020774050e-03 0.0000000000000000e+00  1.8008099255636321e-02 -1.7689667845649393e-03 0.0000000000000000e+00  1.8028725063123953e-02 -5.9764830193098605e-03 0.0000000000000000e+00  1.3437572969801994e-02 -4.2695071503989256e-03 0.0000000000000000e+00  8.9275761007952554e-03 -2.7480272303985085e-03 0.0000000000000000e+00  4.4561693645721436e-03 -1.3452560552202027e-03 0.0000000000000000e+00  0.0000000000000000e+00 0.0000000000000000e+00 0.0000000000000000e+00  0.0000000000000000e+00 0.0000000000000000e+00 0.0000000000000000e+00  -5.9438700526591318e-03 -1.1762521602559865e-03 0.0000000000000000e+00  -1.2004389697374556e-02 -2.3949434399532848e-03 0.0000000000000000e+00  -1.8308879005994372e-02 -3.6992066643674352e-03 0.0000000000000000e+00  -2.5004819349679273e-02 -5.1326842980429421e-03 0.0000000000000000e+00  -2.5251326309698990e-02 -1.7163286665801405e-03 0.0000000000000000e+00  -2.5018980197903863e-02 1.6814252982768937e-03 0.0000000000000000e+00  -1.6139491078014045e-02 1.2654536569622805e-03 0.0000000000000000e+00  -7.6238379918758814e-03 1.0201430098478021e-03 0.0000000000000000e+00  7.1864277953025114e-04 9.4080192261044248e-04 0.0000000000000000e+00  9.0679408846961237e-03 1.0242753468162477e-03 0.0000000000000000e+00  1.7603866761144754e-02 1.2711088224335299e-03 0.0000000000000000e+00  2.6517813310890741e-02 1.6846087247353342e-03 0.0000000000000000e+00  2.6774113136239980e-02 -1.8905761165615195e-03 0.0000000000000000e+00  2.6546846101035894e-02 -5.4681664709728380e-03 0.0000000000000000e+00  1.9460070186447222e-02 -3.9384843599322341e-03 0.0000000000000000e+00  1.2768615687859971e-02 -2.5496873212437435e-03 0.0000000000000000e+00  6.3248739132833690e-03 -1.2523477072643905e-03 0.0000000000000000e+00  0.0000000000000000e+00 0.0000000000000000e+00 0.0000000000000000e+00  0.0000000000000000e+00 0.0000000000000000e+00 0.0000000000000000e+00  -7.2507971151426088e-03 -8.8476526824920586e-04 0.0000000000000000e+00  -1.4684455010997051e-02 -1.7925993437048723e-03 0.0000000000000000e+00  -2.2493428280872137e-02 -2.7460066882644373e-03 0.0000000000000000e+00  -3.0888901582954188e-02 -3.7664225396445384e-03 0.0000000000000000e+00  -3.1251838652542288e-02 -1.7152786811157081e-03 0.0000000000000000e+00  -3.0901066407591510e-02 3.3335405968828134e-04 0.0000000000000000e+00  -1.9857728618598986e-02 7.9806745640376565e-05 0.0000000000000000e+00  -9.3545240337398125e-03 -7.7826638669405254e-05 0.0000000000000000e+00  8.8791673791839402e-04 -1.3999782956323014e-04 0.0000000000000000e+00  1.1136026812478389e-02 -1.0822019377144643e-04 0.0000000000000000e+00  2.1655388136575429e-02 1.5241373450262646e-05 0.0000000000000000e+00  3.2724347810218914e-02 2.2676451983564785e-04 0.0000000000000000e+00  3.3094008185019341e-02 -1.9786648247125259e-03 0.0000000000000000e+00  3.2740422039671799e-02 -4.1772482079374951e-03 0.0000000000000000e+00  2.3875496347202010e-02 -3.0420161380106444e-03 0.0000000000000000e+00  1.5602634624233631e-02 -1.9843589585747776e-03 0.0000000000000000e+00  7.7088569478683602e-03 -9.7905159011405776e-04 0.0000000000000000e+00  0.0000000000000000e+00 0.0000000000000000e+00 0.0000000000000000e+00  0.0000000000000000e+00 0.0000000000000000e+00 0.0000000000000000e+00  -7.8190570899382052e-03 -5.0113542639537386e-04 0.0000000000000000e+00  -1.5848955643724023e-02 -1.0077916382192932e-03 0.0000000000000000e+00  -2.4308458252553958e-02 -1.5246804186892584e-03 0.0000000000000000e+00  -3.3432116426324536e-02 -2.0549800172996228e-03 0.0000000000000000e+00  -3.3840778191896431e-02 -1.7215528493918586e-03 0.0000000000000000e+00  -3.3436084348126296e-02 -1.3913750779764034e-03 0.0000000000000000e+00  -2.1443290161074328e-02 -1.4858237833165874e-03 0.0000000000000000e+00  -1.0057251462758689e-02 -1.5537163311621727e-03 0.0000000000000000e+00  1.0340452774128125e-03 -1.5929234374525405e-03 0.0000000000000000e+00  1.2131205781512902e-02 -1.6039052532193731e-03 0.0000000000000000e+00  2.3534802874709684e-02 -1.5896036270891109e-03 0.0000000000000000e+00  3.5556516239414540e-02 -1.5556463741667511e-03 0.0000000000000000e+00  3.5970022103508310e-02 -2.0208006884107977e-03 0.0000000000000000e+00  3.5560974663746421e-02 -2.4817555858518115e-03 0.0000000000000000e+00  2.5896316820962367e-02 -1.8347466221480028e-03 0.0000000000000000e+00  1.6903528803268952e-02 -1.2097192274096163e-03 0.0000000000000000e+00  8.3451173278754811e-03 -6.0067379853890527e-04 0.0000000000000000e+00  -4.1651964855955375e-10 0.0000000000000000e+00 0.0000000000000000e+00  0.0000000000000000e+00 0.0000000000000000e+00 0.0000000000000000e+00  -7.5372920790936796e-03 -9.5571256245982736e-05 0.0000000000000000e+00  -1.5280859366909412e-02 -1.8210315984243421e-04 0.0000000000000000e+00  -2.3443127373247177e-02 -2.4971067462382939e-04 0.0000000000000000e+00  -3.2249251460338101e-02 -2.8678889368767422e-04 0.0000000000000000e+00  -3.2646465644672051e-02 -1.7418775143556498e-03 0.0000000000000000e+00  -3.2253701938617381e-02 -3.2011261429669259e-03 0.0000000000000000e+00  -2.0630311344137651e-02 -3.1565549510755297e-03 0.0000000000000000e+00  -9.5938993490178211e-03 -3.1430968129005413e-03 0.0000000000000000e+00  1.1567444503370024e-03 -3.1574949472508019e-03 0.0000000000000000e+00  1.1913894512201402e-02 -3.1995703583271198e-03 0.0000000000000000e+00  2.2969849924115358e-02 -3.2721476291843747e-03 0.0000000000000000e+00  3.4625900987677746e-02 -3.3810931677527678e-03 0.0000000000000000e+00  3.5020401628842505e-02 -2.0335847320906379e-03 0.0000000000000000e+00  3.4613608464713133e-02 -6.8445312295280952e-04 0.0000000000000000e+00  2.5206121117189607e-02 -5.3971565422353544e-04 0.0000000000000000e+00  1.6451216732022194e-02 -3.7152913861376874e-04 0.0000000000000000e+00  8.1209842087459055e-03 -1.8910738857365406e-04 0.0000000000000000e+00  0.0000000000000000e+00 0.0000000000000000e+00 0.0000000000000000e+00  0.0000000000000000e+00 0.0000000000000000e+00 0.0000000000000000e+00  -6.4235943971712979e-03 2.7383083072633052e-04 0.0000000000000000e+00  -1.3023497434815493e-02 5.6786609360333980e-04 0.0000000000000000e+00  -1.9978313076696220e-02 9.0306435125252454e-04 0.0000000000000000e+00  -2.7480272024272522e-02 1.3022412116548651e-03 0.0000000000000000e+00  -2.7822187190599330e-02 -1.7777539087970732e-03 0.0000000000000000e+00  -2.7491975377965550e-02 -4.8619406690276869e-03 0.0000000000000000e+00  -1.7496654626342617e-02 -4.7039774155152852e-03 0.0000000000000000e+00  -8.0000324722570276e-03 -4.6221240654914413e-03 0.0000000000000000e+00  1.2541061936285722e-03 -4.6124362704396222e-03 0.0000000000000000e+00  1.0515362072207461e-02 -4.6743847117596922e-03 0.0000000000000000e+00  2.0033421946098529e-02 -4.8105385727688146e-03 0.0000000000000000e+00  3.0064726518296368e-02 -5.0264729633377747e-03 0.0000000000000000e+00  3.0391078039420011e-02 -2.0273865959894795e-03 0.0000000000000000e+00  3.0032873691681068e-02 9.7182763863720256e-04 0.0000000000000000e+00  2.1881379749486965e-02 6.6130374670324635e-04 0.0000000000000000e+00  1.4285870713390011e-02 4.0955508675214229e-04 0.0000000000000000e+00  7.0533494432977427e-03 1.9555185924520932e-04 0.0000000000000000e+00  0.0000000000000000e+00 0.0000000000000000e+00 0.0000000000000000e+00  0.0000000000000000e+00 0.0000000000000000e+00 0.0000000000000000e+00  -4.5993947687027453e-03 5.6254905180102622e-04 0.0000000000000000e+00  -9.3248477186668351e-03 1.1529623771957974e-03 0.0000000000000000e+00  -1.4305790778822195e-02 1.7999003979955930e-03 0.0000000000000000e+00  -1.9677743051553700e-02 2.5337342731524817e-03 0.0000000000000000e+00  -1.9931290168368376e-02 -1.8286952255550566e-03 0.0000000000000000e+00  -1.9700613540012409e-02 -6.1946494237092031e-03 0.0000000000000000e+00  -1.2394375709820495e-02 -5.9507232012510590e-03 0.0000000000000000e+00  -5.4481156105877834e-03 -5.8149674376105449e-03 0.0000000000000000e+00  1.3241295453112890e-03 -5.7833399937974039e-03 0.0000000000000000e+00  8.1038716590021813e-03 -5.8549516693177902e-03 0.0000000000000000e+00  1.5072959175197197e-02 -6.0324972070238975e-03 0.0000000000000000e+00  2.2417106251037367e-02 -6.3204934459116730e-03 0.0000000000000000e+00  2.2639949652996615e-02 -2.0108015191063039e-03 0.0000000000000000e+00  2.2365298250062855e-02 2.2981923924085463e-03 0.0000000000000000e+00  1.6308838538820494e-02 1.6271725825917002e-03 0.0000000000000000e+00  1.0654119654102279e-02 1.0396801930003671e-03 0.0000000000000000e+00  5.2621896058327264e-03 5.0646879281057483e-04 0.0000000000000000e+00  0.0000000000000000e+00 0.0000000000000000e+00 0.0000000000000000e+00  0.0000000000000000e+00 0.0000000000000000e+00 0.0000000000000000e+00  -2.2619471020927989e-03 7.3996501828074636e-04 0.0000000000000000e+00  -4.5877818429875747e-03 1.5120502388854527e-03 0.0000000000000000e+00  -7.0435239295959040e-03 2.3491813133272726e-03 0.0000000000000000e+00  -9.6978264884300738e-03 3.2858361113134267e-03 0.0000000000000000e+00  -9.8401137600432134e-03 -1.8906444598537856e-03 0.0000000000000000e+00  -9.7321284277074923e-03 -7.0691934376207188e-03 0.0000000000000000e+00  -5.8778727569397948e-03 -6.7672715169341622e-03 0.0000000000000000e+00  -2.2117671048992715e-03 -6.5937887983650153e-03 0.0000000000000000e+00  1.3653140879277209e-03 -6.5440392659744774e-03 0.0000000000000000e+00  4.9500387668769260e-03 -6.6168647444038702e-03 0.0000000000000000e+00  8.6391691614762980e-03 -6.8142018313502870e-03 0.0000000000000000e+00  1.2531931158107315e-02 -7.1409797557994929e-03 0.0000000000000000e+00  1.2629655227448033e-02 -1.9885239850335619e-03 0.0000000000000000