<?xml version="1.0"?>
<VTKFile type="UnstructuredGrid"  version="0.1"  >
<UnstructuredGrid>
<Piece  NumberOfPoints="589" NumberOfCells="1080">
<Points>
<DataArray  type="Float64"  NumberOfComponents="3"  format="ascii">-9 0 0  -8 0 0  -7 0 0  -6 0 0  -5 0 0  -4 0 0  -3 0 0  -2 0 0  -1 0 0  0 0 0  1 0 0  2 0 0  3 0 0  4 0 0  5 0 0  6 0 0  7 0 0  8 0 0  9 0 0  -9 2 0  -8.000003865977584 1.999993729149126 0  -7.000008163736727 1.999988251052135 0  -6.000013888208058 1.999984212236894 0  -5.000023295354161 1.999981903131064 0  -4.000013480886013 1.999986365724413 0  -3.000003339111736 1.999990719669075 0  -1.999998413213632 1.999994852819636 0  -0.9999976474051809 1.999998104204079 0  5.459813422974696e-07 1.999999468623204 0  0.9999986412730557 1.999998312205431 0  1.999999073979922 1.999994845802505 0  3.000003521392439 1.999990541964158 0  4.00001260479832 1.999985736807135 0  5.000025915357448 1.99998313158351 0  6.000015957939265 1.999984201017233 0  7.000009601944353 1.999987958203944 0  8.000004606168014 1.999993520560781 0  9 2 0  -9.000000000004983 4 0  -8.000006004788691 3.999984287512767 0  -7.000010620648844 3.999970745145671 0  -6.000013045689923 3.999961505728541 0  -5.000013479099868 3.999958616455296 0  -3.999998921383082 3.999960484070152 0  -2.999989120980017 3.999972874450223 0  -1.999986559602593 3.999989117862055 0  -0.9999902859576767 4.00000216051945 0  2.573208610172969e-06 4.000007254470637 0  0.9999953406897701 4.000002655907704 0  1.99999133525764 3.999990716839473 0  2.999993902263786 3.999974506058532 0  4.000004080340434 3.99995787842048 0  5.000019377872801 3.999951198585798 0  6.000017510081035 3.999957651232584 0  7.000013762903879 3.99996869604657 0  8.000007653758612 3.999983373116657 0  9 4 0  -9 6 0  -8.000013699031228 5.999966166561153 0  -7.000021840831757 5.999936028524793 0  -6.000020169679749 5.999913399706299 0  -5.000007433249429 5.999901974012657 0  -3.999978741219003 5.999920170662431 0  -2.999965565923447 5.999958821380008 0  -1.999970399509721 5.999999490400705 0  -0.9999830113631807 6.000022238795383 0  4.029805030993486e-06 6.000026670992574 0  0.999992241910005 6.000018791272512 0  1.999983264378786 5.999997279619597 0  2.999980122935881 5.999960987622089 0  3.999987518557551 5.999923070889183 0  5.000013111373868 5.999903495988638 0  6.000026579778369 5.999912733888523 0  7.000027371363964 5.999934906171569 0  8.000016879242535 5.999965427677529 0  9 6 0  -9 8 0  -8.000043620845959 7.999933269414083 0  -7.000072310760627 7.999871280908857 0  -6.000071553458043 7.999820487075735 0  -5.000028794940632 7.999791539873953 0  -3.999973521690966 7.999876647322911 0  -2.999982541552947 7.99997704104011 0  -2.000002324055639 8.000026621206258 0  -1.000003699418924 8.000033096576162 0  8.658061788583785e-06 8.00003510525173 0  1.000017654999982 8.00004007143343 0  2.00001340971744 8.000018066944145 0  2.999988607163013 7.999980674045295 0  3.999980351203878 7.99988954037926 0  5.000036718403798 7.999786929739047 0  6.00008635241656 7.999816087652816 0  7.000086109471456 7.999867726123762 0  8.000051648659777 7.999931284124826 0  9 8 0  -9 10 0  -8.000133239411408 9.999881425806699 0  -7.000240541904729 9.999761788493192 0  -6.000290913381716 9.99964024396216 0  -5.000241120663556 9.999516458468666 0  -4.000154023642213 9.999789881127144 0  -3.000166131342924 10.00002566759874 0  -2.000129830370822 9.999987736951308 0  -1.000053258366055 9.999975587980792 0  3.913761947080522e-06 9.999972614903395 0  1.000061093509279 9.999972574498926 0  2.000137765755793 9.999970054891332 0  3.000204511566424 10.00005707260743 0  4.000195716609118 9.999820310537206 0  5.00029968261326 9.999508626412553 0  6.0003455700627 9.999629568344496 0  7.000281678928582 9.99975289565201 0  8.000155142882715 9.999876526772026 0  9 10 0  -9 12 0  -8.00032648156723 11.99983388087594 0  -7.00063629410788 11.99966000275801 0  -6.000910537205511 11.99946910002483 0  -5.001125716653514 11.99924827864026 0  -4.001081062928556 11.99974437299923 0  -3.001118703343058 12.00023534357743 0  -2.000749034818815 12.00017940432873 0  -1.000341164768465 12.00015080817366 0  8.032396937673883e-05 12.00014834812375 0  1.000504165743635 12.00017333286022 0  2.000920330135135 12.00023220403821 0  3.001308705475838 12.00034079735451 0  4.001263573839216 11.99977188170907 0  5.001295575777026 11.99919815276102 0  6.001043588060415 11.99943362236437 0  7.000727669978683 11.99963692056263 0  8.00037296710623 11.99982244489509 0  9 12 0  -9 14 0  -8.000586145480677 13.99981742366877 0  -7.001173916455832 13.99962640505917 0  -6.00176571766988 13.99941776151511 0  -5.002366014391432 13.99918086079369 0  -4.002371821506925 13.99975713230029 0  -3.002372864467324 14.0003405384929 0  -2.001521527479397 14.00026179555318 0  -1.000683739489999 14.00022156952718 0  0.000147420050223581 14.00021438388111 0  1.000978378699491 14.00023865019837 0  2.001814836418816 14.00029561715581 0  3.002660870774775 14.00038830326167 0  4.00266662478425 13.99974920657089 0  5.002673231888886 13.99911371326499 0  6.001996634042187 13.999366590108 0  7.001328392184551 13.9995921780843 0  8.000663592459276 13.99980031553607 0  9 14 0  -9 16 0  -8.000838962567922 15.9998347695874 0  -7.001694848391599 15.99966337960253 0  -6.002585997255331 15.99947956116968 0  -5.003533650640471 15.99927693011416 0  -4.003567546673875 15.99976264057443 0  -3.003532958739855 16.00024546399311 0  -2.002240736647641 16.00019040764253 0  -1.001000180816652 16.00016040368551 0  0.0002153741554384933 16.00015482619076 0  1.001431080642404 16.00017337907616 0  2.002672020647213 16.00021637019903 0  3.003964796526568 16.00028458428124 0  4.004001553211386 15.99973220789265 0  5.003971054547801 15.99917915530286 0  6.002915077706975 15.99940887243879 0  7.001914627696423 15.99961734928555 0  8.000948957119689 15.99981205752605 0  9 16 0  -9 18 0  -8.001023700329464 17.99987676109556 0  -7.002074085858751 17.99975010425578 0  -6.003179207021954 17.99961667001735 0  -5.004369850437923 17.99947323640716 0  -4.004421379982934 17.99976236777236 0  -3.004369489301241 18.000050840028 0  -2.002754509234849 18.00001905295278 0  -1.001217154654875 18.00000178415405 0  0.0002827378261985636 17.99999899788954 0  1.001783410310688 18.00001060248344 0  2.003323054269932 18.00003647094355 0  3.004941666998993 18.00007636671078 0  4.004995941062189 17.99971910380988 0  5.004945525358504 17.99936253984333 0  6.003610057475577 17.99953622031353 0  7.00236088782523 17.99969765976189 0  8.001166972912589 17.99985088732844 0  9 18 0  -9 20 0  -8.001101362446439 19.99993241888771 0  -7.00223371286108 19.99986394813648 0  -6.003429222560322 19.99979379746518 0  -5.004722434955114 19.99972137572627 0  -4.004781311907251 19.99976032755652 0  -3.004721233024093 19.99979860127022 0  -2.00295912498134 19.99978980538057 0  -1.00128490250325 19.99978542200651 0  0.0003469860866025758 19.99978579402192 0  1.001980486267182 19.99979095387254 0  2.003659556381164 19.9998006346589 0  3.005429797585702 19.99981424266589 0  4.005491634796609 19.99971197280489 0  5.005431657465848 19.99961014203006 0  6.003958440413909 19.99971256366357 0  7.002585257897874 19.99981083260878 0  8.001276758919975 19.99990617240663 0  8.999999999969658 19.99999999999949 0  -9 22 0  -8.001054759660391 21.9999916300074 0  -7.002140032652812 21.99998451258289 0  -6.00328730069998 21.99998001434888 0  -5.0045299777492 21.99997973254988 0  -4.004587471636866 21.9997559996821 0  -3.004528625501047 21.99953157348844 0  -2.002813584783285 21.99954296842381 0  -1.001183958290784 21.99955010471015 0  0.0004048084658744961 21.99955350744984 0  1.001995967880868 21.99955328663038 0  2.003632807519886 21.99954914538744 0  3.005359990599844 21.99954037261491 0  4.005420229124111 21.99970906221224 0  5.005359612509267 21.99987795269272 0  6.003905334224396 21.99990551330574 0  7.002550076929699 21.99993571376319 0  8.001259191005543 21.99996749065955 0  9 22 0  -9 24 0  -8.000885774385551 24.00004583331797 0  -7.001797676710947 24.00009460390007 0  -6.002762583680099 24.00014936894598 0  -5.003808826672477 24.00021342892211 0  -4.003857993959587 23.99974971099255 0  -3.003807812428451 23.99928537549901 0  -2.002327748806725 23.999313110495 0  -1.000920197942508 23.99932967043073 0  0.000453104997327176 23.99933566476856 0  1.001829446182218 23.99933124835376 0  2.003246157745013 23.99931612336195 0  3.004741643820915 23.99928953646324 0  4.004792898743935 23.99970953766326 0  5.004739060187217 24.00012960589931 0  6.003454857187967 24.00008789088434 0  7.002256642259137 24.00005427894476 0  8.001114493431599 24.00002586879639 0  9 24 0  -9 26 0  -8.000611891630943 26.00008829695117 0  -7.001242559468001 26.00018072817482 0  -6.001911297742332 26.00028155090903 0  -5.002638373094455 26.00039527327529 0  -4.002673922371048 25.99974190928955 0  -3.002638056844708 25.99908803605484 0  -2.001553184548753 25.99912782760344 0  -1.000520044167409 25.99915137295891 0  0.0004893091261536092 25.99915933947753 0  1.001502169617004 25.9991519170066 0  2.002545883463087 25.99912881767533 0  3.003648544750084 25.99908927609499 0  4.003685236100269 25.9997125484903 0  5.00364387592598 26.00033576744664 0  6.002659166718644 26.00023784928528 0  7.001738180440161 26.00015203474846 0  8.000858816536145 26.00007408229179 0  9 26 0  -9 28 0  -8.00026245258937 28.0001142338025 0  -7.000534341658964 28.00023329629676 0  -6.00082538335244 28.00036214188641 0  -5.001145767828856 28.00050597891114 0  -4.00116411681473 27.99973323740187 0  -3.001146336528032 27.99896013909067 0  -2.000572995810026 27.99900739336213 0  -1.00002533265283 27.99903525416304 0  0.0005115413015982106 27.99904443446979 0  1.001052197654871 27.99903515403743 0  2.001611259060731 27.9990071403681 0  3.002203767952385 27.9989596279914 0  4.002222196319007 27.99971739993521 0  5.002197336301719 28.00047504105401 0  6.001607305817775 28.00033939441889 0  7.001052430297976 28.00021834775216 0  8.00052
[...]
<PointData  Vectors="f_44-2"> 
<DataArray  type="Float64"  Name="f_44-2"  NumberOfComponents="3" format="ascii">0.0000000000000000e+00 0.0000000000000000e+00 0.0000000000000000e+00  0.0000000000000000e+00 0.0000000000000000e+00 0.0000000000000000e+00  0.0000000000000000e+00 0.0000000000000000e+00 0.0000000000000000e+00  0.0000000000000000e+00 0.0000000000000000e+00 0.0000000000000000e+00  0.0000000000000000e+00 0.0000000000000000e+00 0.0000000000000000e+00  0.0000000000000000e+00 0.0000000000000000e+00 0.0000000000000000e+00  0.0000000000000000e+00 0.0000000000000000e+00 0.0000000000000000e+00  0.0000000000000000e+00 0.0000000000000000e+00 0.0000000000000000e+00  0.0000000000000000e+00 0.0000000000000000e+00 0.0000000000000000e+00  0.0000000000000000e+00 0.0000000000000000e+00 0.0000000000000000e+00  0.0000000000000000e+00 0.0000000000000000e+00 0.0000000000000000e+00  0.0000000000000000e+00 0.0000000000000000e+00 0.0000000000000000e+00  0.0000000000000000e+00 0.0000000000000000e+00 0.0000000000000000e+00  0.0000000000000000e+00 0.0000000000000000e+00 0.0000000000000000e+00  0.0000000000000000e+00 0.0000000000000000e+00 0.0000000000000000e+00  0.0000000000000000e+00 0.0000000000000000e+00 0.0000000000000000e+00  0.0000000000000000e+00 0.0000000000000000e+00 0.0000000000000000e+00  0.0000000000000000e+00 0.0000000000000000e+00 0.0000000000000000e+00  0.0000000000000000e+00 0.0000000000000000e+00 0.0000000000000000e+00  0.0000000000000000e+00 0.0000000000000000e+00 0.0000000000000000e+00  6.9218046404972557e-05 1.0637975927693373e-04 0.0000000000000000e+00  1.4447152590058444e-04 1.9903074875380470e-04 0.0000000000000000e+00  2.4114514031138963e-04 2.6673072502538984e-04 0.0000000000000000e+00  3.9541716490198867e-04 3.0430054991068309e-04 0.0000000000000000e+00  2.2877361476301861e-04 2.2897742056588119e-04 0.0000000000000000e+00  5.9141992129114989e-05 1.5425247509066937e-04 0.0000000000000000e+00  -2.1484146731907230e-05 8.2660718694237665e-05 0.0000000000000000e+00  -3.0548284073353578e-05 2.5822583032016340e-05 0.0000000000000000e+00  5.3064625087867105e-06 4.2993004759627181e-07 0.0000000000000000e+00  4.4870476062677041e-05 1.6696576340184234e-05 0.0000000000000000e+00  4.8269105166503051e-05 7.0187914961664644e-05 0.0000000000000000e+00  -1.0829189024470124e-05 1.3494648480118042e-04 0.0000000000000000e+00  -1.3956207169672096e-04 2.0182444528299231e-04 0.0000000000000000e+00  -3.2633210034568530e-04 2.2196250330957289e-04 0.0000000000000000e+00  -1.9450017552164619e-04 2.1800705594116887e-04 0.0000000000000000e+00  -1.1530950609235253e-04 1.7026999564597145e-04 0.0000000000000000e+00  -5.5155384755110018e-05 9.2743381768328013e-05 0.0000000000000000e+00  0.0000000000000000e+00 0.0000000000000000e+00 0.0000000000000000e+00  0.0000000000000000e+00 0.0000000000000000e+00 0.0000000000000000e+00  1.1429282019466998e-04 2.6766698876267662e-04 0.0000000000000000e+00  2.0326314993870037e-04 4.9785993784866496e-04 0.0000000000000000e+00  2.5189596592882382e-04 6.5397896881781985e-04 0.0000000000000000e+00  2.6284698019695432e-04 7.0135469983163086e-04 0.0000000000000000e+00  1.7366249735772029e-05 6.6341754349259264e-04 0.0000000000000000e+00  -1.4475624770921044e-04 4.4771397389084809e-04 0.0000000000000000e+00  -1.8181397189004104e-04 1.6720293229113679e-04 0.0000000000000000e+00  -1.1040322454271623e-04 -5.9194193898024619e-05 0.0000000000000000e+00  1.9792918478682673e-05 -1.5149961437507743e-04 0.0000000000000000e+00  1.5289204362488757e-04 -8.3032598072931945e-05 0.0000000000000000e+00  2.3438939789273660e-04 1.0426074226956205e-04 0.0000000000000000e+00  2.0976756900877497e-04 3.5695803905037024e-04 0.0000000000000000e+00  6.2177972820661806e-05 6.0841675202226529e-04 0.0000000000000000e+00  -1.7002362475750712e-04 6.8289776492214290e-04 0.0000000000000000e+00  -1.7843375872351940e-04 6.1113500109864023e-04 0.0000000000000000e+00  -1.5447060614326853e-04 4.5968932737539925e-04 0.0000000000000000e+00  -9.0312312538760631e-05 2.4634466336704940e-04 0.0000000000000000e+00  0.0000000000000000e+00 0.0000000000000000e+00 0.0000000000000000e+00  0.0000000000000000e+00 0.0000000000000000e+00 0.0000000000000000e+00  2.6064802875618004e-04 5.7881192368496850e-04 0.0000000000000000e+00  4.2340402397986069e-04 1.0929490056799970e-03 0.0000000000000000e+00  4.1337327227142310e-04 1.4761654532193867e-03 0.0000000000000000e+00  2.0950190765854100e-04 1.6653612435705734e-03 0.0000000000000000e+00  -2.7522444468373842e-04 1.3419414203349619e-03 0.0000000000000000e+00  -4.9137428188923997e-04 6.7001176786426380e-04 0.0000000000000000e+00  -3.9417465683662655e-04 -3.3498375273683205e-05 0.0000000000000000e+00  -1.6590413642536583e-04 -4.2315071774954281e-04 0.0000000000000000e+00  6.3484317035616757e-05 -5.0151992641983816e-04 0.0000000000000000e+00  2.6954893052111284e-04 -3.7839953268569115e-04 0.0000000000000000e+00  4.2840049704161496e-04 -3.5910004530135842e-05 0.0000000000000000e+00  4.9321071293147796e-04 5.4382733942723587e-04 0.0000000000000000e+00  3.8692407278925533e-04 1.1430190416826728e-03 0.0000000000000000e+00  -1.9219476627584003e-05 1.4346644561929087e-03 0.0000000000000000e+00  -2.9185993876076086e-04 1.3229602192964911e-03 0.0000000000000000e+00  -3.5440099779642165e-04 9.9666500628550455e-04 0.0000000000000000e+00  -2.3006891599704318e-04 5.3190827427791612e-04 0.0000000000000000e+00  0.0000000000000000e+00 0.0000000000000000e+00 0.0000000000000000e+00  0.0000000000000000e+00 0.0000000000000000e+00 0.0000000000000000e+00  7.9950439920790798e-04 1.1483312798941353e-03 0.0000000000000000e+00  1.3346224028405614e-03 2.2115268316840963e-03 0.0000000000000000e+00  1.3501697304582475e-03 3.0742417653562264e-03 0.0000000000000000e+00  6.2967710166142541e-04 3.5468606688832667e-03 0.0000000000000000e+00  -3.1895291966950218e-04 2.0554053911658416e-03 0.0000000000000000e+00  -1.2801080888566159e-04 3.0557852910172482e-04 0.0000000000000000e+00  2.4282819281326264e-04 -5.4030609383232640e-04 0.0000000000000000e+00  2.8195412425468684e-04 -6.2769840252882277e-04 0.0000000000000000e+00  7.4303431172667255e-05 -6.5211399449911485e-04 0.0000000000000000e+00  -8.0800937188535882e-05 -7.3942728250319626e-04 0.0000000000000000e+00  -1.2659119506385574e-05 -3.9445432550958199e-04 0.0000000000000000e+00  4.0428084160527736e-04 1.9131030423619302e-04 0.0000000000000000e+00  5.5319330372142713e-04 1.6632419257150484e-03 0.0000000000000000e+00  -3.6412586391395364e-04 3.3282543737928947e-03 0.0000000000000000e+00  -1.2455424649140997e-03 2.8928755161092149e-03 0.0000000000000000e+00  -1.3016599257651405e-03 2.0872766638903922e-03 0.0000000000000000e+00  -7.9263165110336103e-04 1.0859190563484149e-03 0.0000000000000000e+00  0.0000000000000000e+00 0.0000000000000000e+00 0.0000000000000000e+00  0.0000000000000000e+00 0.0000000000000000e+00 0.0000000000000000e+00  2.3949977062469410e-03 2.0576615325946040e-03 0.0000000000000000e+00  4.3236147293745251e-03 4.1309048727717268e-03 0.0000000000000000e+00  5.2301856418519276e-03 6.2308268760666681e-03 0.0000000000000000e+00  4.3418497666840280e-03 8.3577257260331432e-03 0.0000000000000000e+00  2.8274070974518882e-03 3.5134331217625925e-03 0.0000000000000000e+00  3.1040353706632351e-03 -6.4410731551150884e-04 0.0000000000000000e+00  2.5081616142056439e-03 1.0287853142633329e-04 0.0000000000000000e+00  1.1830402330223432e-03 3.4321243896233720e-04 0.0000000000000000e+00  2.1472329970862648e-04 4.0215696570832313e-04 0.0000000000000000e+00  -7.4295199801774304e-04 3.9501432578344906e-04 0.0000000000000000e+00  -2.0190436952214784e-03 4.1111322860684684e-04 0.0000000000000000e+00  -3.1393543728811587e-03 -1.0879817409928179e-03 0.0000000000000000e+00  -2.9853944606946935e-03 2.7781228170619329e-03 0.0000000000000000e+00  -4.6800828066814121e-03 7.8922528496809009e-03 0.0000000000000000e+00  -5.4984127073521329e-03 5.9421160000068130e-03 0.0000000000000000e+00  -4.5082309405329261e-03 3.9600539265351679e-03 0.0000000000000000e+00  -2.4887743275818002e-03 1.9776246097870770e-03 0.0000000000000000e+00  0.0000000000000000e+00 0.0000000000000000e+00 0.0000000000000000e+00  0.0000000000000000e+00 0.0000000000000000e+00 0.0000000000000000e+00  5.8518005097969424e-03 2.9031006208357162e-03 0.0000000000000000e+00  1.1393902382506470e-02 5.9409277219515076e-03 0.0000000000000000e+00  1.6276411556099515e-02 9.2746746686143983e-03 0.0000000000000000e+00  2.0065135651677415e-02 1.3129272407890837e-02 0.0000000000000000e+00  1.9286307018108181e-02 4.2521336896376568e-03 0.0000000000000000e+00  2.0016295190788531e-02 -4.5377180070312675e-03 0.0000000000000000e+00  1.3853945208520535e-02 -3.4525527499849637e-03 0.0000000000000000e+00  6.9649783794658330e-03 -2.8547492880377353e-03 0.0000000000000000e+00  -2.0425973003645068e-04 -2.7199008707960459e-03 0.0000000000000000e+00  -7.4542809709505107e-03 -3.0649942867430305e-03 0.0000000000000000e+00  -1.4618749183089790e-02 -3.9942365203792102e-03 0.0000000000000000e+00  -2.1372897127701199e-02 -5.7698294774078847e-03 0.0000000000000000e+00  -2.0620480016843291e-02 3.5468220965562524e-03 0.0000000000000000e+00  -2.1100362720983340e-02 1.2941050569593722e-02 0.0000000000000000e+00  -1.6975363987086108e-02 9.1154586641956289e-03 0.0000000000000000e+00  -1.1826912418723360e-02 5.8320892377779791e-03 0.0000000000000000e+00  -6.0591331375177034e-03 2.8487417229844801e-03 0.0000000000000000e+00  0.0000000000000000e+00 0.0000000000000000e+00 0.0000000000000000e+00  0.0000000000000000e+00 0.0000000000000000e+00 0.0000000000000000e+00  1.0538704358090839e-02 3.2078656106788784e-03 0.0000000000000000e+00  2.1088628322685238e-02 6.5642086771863567e-03 0.0000000000000000e+00  3.1673922888760829e-02 1.0230643143857882e-02 0.0000000000000000e+00  4.2353236589268373e-02 1.4394683004206916e-02 0.0000000000000000e+00  4.2464111983928257e-02 3.9634168358294343e-03 0.0000000000000000e+00  4.2556120470412802e-02 -6.6000150562055436e-03 0.0000000000000000e+00  2.8122628094217762e-02 -5.0617949477295933e-03 0.0000000000000000e+00  1.3874982648340008e-02 -4.2038262728131539e-03 0.0000000000000000e+00  -3.0264084735002729e-04 -3.9250494510076348e-03 0.0000000000000000e+00  -1.4521322450725746e-02 -4.1917659489149797e-03 0.0000000000000000e+00  -2.8884962417809523e-02 -5.0190331255682346e-03 0.0000000000000000e+00  -4.3475707706453474e-02 -6.4521437321404156e-03 0.0000000000000000e+00  -4.3579494017313265e-02 3.8981140404789122e-03 0.0000000000000000e+00  -4.3629521990355802e-02 1.4182982498659314e-02 0.0000000000000000e+00  -3.2524214420268510e-02 1.0112733056963715e-02 0.0000000000000000e+00  -2.1610074763310200e-02 6.4997371894570709e-03 0.0000000000000000e+00  -1.0786888654285445e-02 3.1790759258057987e-03 0.0000000000000000e+00  0.0000000000000000e+00 0.0000000000000000e+00 0.0000000000000000e+00  0.0000000000000000e+00 0.0000000000000000e+00 0.0000000000000000e+00  1.5168873898669451e-02 2.9175431955764139e-03 0.0000000000000000e+00  3.0622319416404604e-02 5.9446259638256446e-03 0.0000000000000000e+00  4.6663848632465664e-02 9.1924259614702703e-03 0.0000000000000000e+00  6.3650325135617969e-02 1.2774672198190375e-02 0.0000000000000000e+00  6.4254829521116455e-02 3.8055377888461298e-03 0.0000000000000000e+00  6.3709436439248451e-02 -5.1185553615085005e-03 0.0000000000000000e+00  4.1678867555567857e-02 -3.9597091767533598e-03 0.0000000000000000e+00  2.0518207937455540e-02 -3.2439565531613606e-03 0.0000000000000000e+00  -2.3781405472874591e-04 -2.9553203514401435e-03 0.0000000000000000e+00  -2.1023596221508293e-02 -3.0833173636007033e-03 0.0000000000000000e+00  -4.2274313160313937e-02 -3.6274921567362880e-03 0.0000000000000000e+00  -6.4453474650521814e-02 -4.5952286767581979e-03 0.0000000000000000e+00  -6.5078557701291118e-02 4.1545708022720255e-03 0.0000000000000000e+00  -6.4513358491252074e-02 1.2909417905790210e-02 0.0000000000000000e+00  -4.7271203769433029e-02 9.2760303252237015e-03 0.0000000000000000e+00  -3.1006846629442489e-02 5.9945755936335349e-03 0.0000000000000000e+00  -1.5355974821870176e-02 2.9412350073619374e-03 0.0000000000000000e+00  0.0000000000000000e+00 0.0000000000000000e+00 0.0000000000000000e+00  0.0000000000000000e+00 0.0000000000000000e+00 0.0000000000000000e+00  1.8662790095523754e-02 2.1894902678866427e-03 0.0000000000000000e+00  3.7782174207081035e-02 4.4407242201597464e-03 0.0000000000000000e+00  5.7837839947746932e-02 6.8143945399773984e-03 0.0000000000000000e+00  7.9364420061267010e-02 9.3691138490649903e-03 0.0000000000000000e+00  8.0279595926879513e-02 3.7495509072796845e-03 0.0000000000000000e+00  7.9418886999539556e-02 -1.8643857289541246e-03 0.0000000000000000e+00  5.1820753474778748e-02 -1.0946066410136514e-03 0.0000000000000000e+00  2.5561319197678969e-02 -5.8398700179394802e-04 0.0000000000000000e+00  -5.3702015942956328e-05 -3.2734332827630427e-04 0.0000000000000000e+00  -2.5683837944001756e-02 -3.1828280530290002e-04 0.0000000000000000e+00  -5.1988400878663722e-02 -5.4951548869719977e-04 0.0000000000000000e+00  -7.9658067081349621e-02 -1.0115652329751445e-03 0.0000000000000000e+00  -8.0574158140511304e-02 4.3427197504927444e-03 0.0000000000000000e+00  -7.9687187100184215e-02 9.6793732488167743e-03 0.0000000000000000e+00  -5.8064322578387208e-02 7.0283680460698564e-03 0.0000000000000000e+00  -3.7922808024162341e-02 4.5749657594675768e-03 0.0000000000000000e+00  -1.8730074659860707e-02 2.2542312164666534e-03 0.0000000000000000e+00  0.0000000000000000e+00 0.0000000000000000e+00 0.0000000000000000e+00  0.0000000000000000e+00 0.0000000000000000e+00 0.0000000000000000e+00  2.0318738196282445e-02 1.2146439093577248e-03 0.0000000000000000e+00  4.1173895794403594e-02 2.4467455424748790e-03 0.0000000000000000e+00  6.3122457125625336e-02 3.7120140364570735e-03 0.0000000000000000e+00  8.6762809190782414e-02 5.0227617028294575e-03 0.0000000000000000e+00  8.7810253750145117e-02 3.7246009605152921e-03 0.0000000000000000e+00  8.6793608674817668e-02 2.4331887929122616e-03 0.0000000000000000e+00  5.6650194786884822e-02 2.8012586223289944e-03 0.0000000000000000e+00  2.8044614068460413e-02 3.0857282527666282e-03 0.0000000000000000e+00  1.9137442192667471e-04 3.2847762693792764e-03 0.0000000000000000e+00  -2.7666544798287573e-02 3.4019166972501023e-03 0.0000000000000000e+00  -5.6285502008273251e-02 3.4461332862343532e-03 0.0000000000000000e+00  -8.6449785473550561e-02 3.4322636952012820e-03 0.0000000000000000e+00  -8.7485013102397188e-02 4.4289146876333053e-03 0.0000000000000000e+00  -8.6452852998088012e-02 5.4132137535039919e-03 0.0000000000000000e+00  -6.2887935943820000e-02 3.9893414706683589e-03 0.0000000000000000e+00  -4.1016217127372460e-02 2.6241892342502640e-03 0.0000000000000000e+00  -2.0239467846708027e-02 1.3011611777287671e-03 0.0000000000000000e+00  1.9550922245279322e-10 -6.7120822662926927e-10 0.0000000000000000e+00  0.0000000000000000e+00 0.0000000000000000e+00 0.0000000000000000e+00  1.9818225958887256e-02 1.7016005328455329e-04 0.0000000000000000e+00  4.0169000799230435e-02 3.2010029812262064e-04 0.0000000000000000e+00  6.1601335837726860e-02 4.2759374253130314e-04 0.0000000000000000e+00  8.4698335433988650e-02 4.6640293754354636e-04 0.0000000000000000e+00  8.5727564023814193e-02 3.7442861373884135e-03 0.0000000000000000e+00  8.4721829033143403e-02 7.0302651305078215e-03 0.0000000000000000e+00  5.5374516364805247e-02 7.0294688356352351e-03 0.0000000000000000e+00  2.7541151476103490e-02 7.0953714262945557e-03 0.0000000000000000e+00  4.5496674003264650e-04 7.2222708262505309e-03 0.0000000000000000e+00  -2.6627154435163728e-02 7.4117058262226513e-03 0.0000000000000000e+00  -5.4447881773451744e-02 7.6723633732823362e-03 0.0000000000000000e+00  -8.3772785211215103e-02 8.0202173294567393e-03 0.0000000000000000e+00  -8.4768953468293620e-02 4.4475122033859928e-03 0.0000000000000000e+00  -8.3741465070731713e-02 8.6763941551375699e-04 0.0000000000000000e+00  -6.0896082000406040e-02 7.1536638223790717e-04 0.0000000000000000e+00  -3.9704317841379032e-02 5.0571418070390094e-04 0.0000000000000000e+00  -1.9587511498055099e-02 2.6109675435416973e-04 0.0000000000000000e+00  0.0000000000000000e+00 0.0000000000000000e+00 0.0000000000000000e+00  0.0000000000000000e+00 0.0000000000000000e+00 0.0000000000000000e+00  1.7176315195556117e-02 -7.9349551594132934e-04 0.0000000000000000e+00  3.4814183064937804e-02 -1.6368158056096294e-03 0.0000000000000000e+00  5.3382131045694239e-02 -2.5821026583027562e-03 0.0000000000000000e+00  7.3384596785455308e-02 -3.6853852768564399e-03 0.0000000000000000e+00  7.4276197385021808e-02 3.8080326415460613e-03 0.0000000000000000e+00  7.3413268301466023e-02 1.1308963391914610e-02 0.0000000000000000e+00  4.8088157609098514e-02 1.0992645259989815e-02 0.0000000000000000e+00  2.4069831617036307e-02 1.0862679054460483e-02 0.0000000000000000e+00  7.0109553699063435e-04 1.0911280182764835e-02 0.0000000000000000e+00  -2.2656647335352942e-02 1.1138374570777055e-02 0.0000000000000000e+00  -4.6641640575512747e-02 1.1551818869130282e-02 0.0000000000000000e+00  -7.1909444892170230e-02 1.2167380648329085e-02 0.0000000000000000e+00  -7.2739939112310192e-02 4.4184065193914636e-03 0.0000000000000000e+00  -7.1840510698602200e-02 -3.3346632446966899e-03 0.0000000000000000e+00  -5.2249077644587534e-02 -2.3287740128553757e-03 0.0000000000000000e+00  -3.4068343366105591e-02 -1.4726478844336846e-03 0.0000000000000000e+00  -1.6807355382742591e-02 -7.1278512338619066e-04 0.0000000000000000e+00  0.0000000000000000e+00 0.0000000000000000e+00 0.0000000000000000e+00  0.0000000000000000e+00 0.0000000000000000e+00 0.0000000000000000e+00  1.2681788330361049e-02 -1.5581347107840803e-03 0.0000000000000000e+00  2.5699388146909190e-02 -3.1871109125755693e-03 0.0000000000000000e+00  3.9397657877391877e-02 -4.9599141607689252e-03 0.0000000000000000e+00  5.4138444099642524e-02 -6.9538298635778290e-03 0.0000000000000000e+00  5.4800758030998119e-02 3.9114963703612872e-03 0.0000000000000000e+00  5.4180326442829448e-02 1.4782562376391856e-02 0.0000000000000000e+00  3.5620319124423039e-02 1.4214110078728819e-02 0.0000000000000000e+00  1.8019908632186669e-02 1.3919800277384283e-02 0.0000000000000000e+00  9.0135664832651668e-04 1.3890436807739128e-02 0.0000000000000000e+00  -1.6200895580731178e-02 1.4123859720655756e-02 0.0000000000000000e+00  -3.3752404047805433e-02 1.4627191286862807e-02 0.0000000000000000e+00  -5.2228774786614002e-02 1.5415390271812312e-02 0.0000000000000000e+00  -5.2800013645426157e-02 4.3599302518013087e-03 0.0000000000000000e+00  -5.2122874484454004e-02 -6.6974584534742537e-03 0.0000000000000000e+00  -3.7918998753893082e-02 -4.7737800536310883e-03 0.0000000000000000e+00  -2.4728988712227874e-02 -3.0659938204363356e-03 0.0000000000000000e+00  -1.2201134561967244e-02 -1.4984629279716933e-03 0.0000000000000000e+00  0.0000000000000000e+00 0.0000000000000000e+00 0.0000000000000000e+00  0.0000000000000000e+00 0.0000000000000000e+00 0.0000000000000000e+00  6.8289435094796526e-03 -2.0397133992868430e-03 0.0000000000000000e+00  1.3834533535319363e-02 -4.1623300078321712e-03 0.0000000000000000e+00  2.1198818573652675e-02 -6.4529176855433962e-03 0.0000000000000000e+00  2.9112001461322486e-02 -9.0011052831565630e-03 0.0000000000000000e+00  2.9481724153880409e-02 4.0439244278657341e-03 0.0000000000000000e+00  2.9169187584833667e-02 1.7091512493724342e-02 0.0000000000000000e+00  1.9356206025601730e-02 1.6343048704334590e-02 0.0000000000000000e+00  1.0062355168155263e-02 1.5923509920534724e-02 0.0000000000000000e+00  1.0344920256421053e-03 1.5821629460859889e-02 0.0000000000000000e+00  -7.9736421256355588e-03 1.6034499874274247e-02 0.0000000000000000e+00  -1.7207883834191563e-02 1.6567714077589252e-02 0.0000000000000000e+00  -2.6919845601227343e-02 1.7435340574849533e-02 0.0000000000000000e+00  -2.7172762065683295e-02 4.2845625418569226e-03 0.0000000000000000e+00  -2.6784043954175028e-02 -8.8673826827880917e-03 0.0000000000000000e+00  -1.9492162378971067e-02 -6.35541977690843