<?xml version="1.0"?>
<VTKFile type="UnstructuredGrid"  version="0.1"  >
<UnstructuredGrid>
<Piece  NumberOfPoints="589" NumberOfCells="1080">
<Points>
<DataArray  type="Float64"  NumberOfComponents="3"  format="ascii">-9 0 0  -8 0 0  -7 0 0  -6 0 0  -5 0 0  -4 0 0  -3 0 0  -2 0 0  -1 0 0  0 0 0  1 0 0  2 0 0  3 0 0  4 0 0  5 0 0  6 0 0  7 0 0  8 0 0  9 0 0  -9 2 0  -7.999996155414864 2.000005157173957 0  -6.999992001117063 2.000009700682428 0  -5.999986783534868 2.000013133941675 0  -4.999978756739379 2.000015243190339 0  -3.999986934829163 2.000011303905479 0  -2.999995320718252 2.000007684508606 0  -1.99999948124642 2.000004332355719 0  -1.000000319493144 2.000001660507561 0  9.500519198247662e-07 2.000000410606166 0  1.000002477269009 2.000001008472957 0  2.000002506002406 2.000003222429753 0  2.999999907995042 2.000005865048535 0  3.999994464377054 2.000008421695179 0  4.999986813037281 2.00000858868857 0  5.999992425599089 2.00000870729739 0  6.999995626797026 2.000006903762697 0  7.999997936023597 2.000003787423146 0  9 2 0  -9.000000000009988 4 0  -7.999993549632642 4.000012769156467 0  -6.999988255364136 4.000023842474227 0  -5.999984803903427 4.000031563986431 0  -4.999983088550148 4.000034366446511 0  -3.999994704758525 4.000032331456748 0  -3.000002503439899 4.000022277740778 0  -2.000004627549807 4.000009287649174 0  -1.000001834019411 3.999998795966135 0  3.647601343910691e-06 3.999994357930851 0  1.00000932103147 3.999997042634693 0  2.000012799223328 4.000004900448275 0  3.000011725271928 4.000015464542795 0  4.00000541042555 4.000025641007608 0  4.99999552059826 4.000027550268473 0  5.999994496654174 4.000025103222649 0  6.999994821473761 4.000019058845222 0  7.999996853020441 4.000010259288639 0  9 4 0  -9 6 0  -7.999986319208182 6.000027165178777 0  -6.999977138350933 6.000051392115548 0  -5.999975879861704 6.000069670828914 0  -4.9999834927108 6.000079153893453 0  -4.000005801384851 6.0000640578966 0  -3.00001585732041 6.000033170151382 0  -2.000011607072134 6.000000942846199 0  -1.000001495874237 5.999983181895613 0  8.505609048973405e-06 5.999979437844343 0  1.000017311017174 5.999984571324369 0  2.000023976723996 5.999999108096172 0  3.000026644667848 6.000023700554949 0  4.000022000648389 6.000048808708772 0  5.000004313746842 6.000060181846458 0  5.999991172610285 6.00005588897385 0  6.999987189093519 6.000042235187086 0  7.999991308086443 6.000022570583069 0  9 6 0  -9 8 0  -7.999961086350014 8.000053317288886 0  -6.999934330686189 8.00010273796472 0  -5.999931469892065 8.000142963460052 0  -4.999962412556559 8.0001652642057 0  -4.000005790351743 8.000096649134473 0  -2.999996589058362 8.00001634102118 0  -1.999979313936326 7.999977959063193 0  -0.9999775139234426 7.999974549691169 0  1.280294597931164e-05 7.999973713094996 0  1.000005236552997 7.999969873929638 0  2.00000758325968 7.99998431730705 0  3.000025288711153 8.00000900971142 0  4.000031246820012 8.000071882699611 0  4.999991097602773 8.000143005228418 0  5.999951215833835 8.000124122476331 0  6.999947144265043 8.000089457834333 0  7.999967469498314 8.000046508024349 0  9 8 0  -9 10 0  -7.999887205494974 10.00009506868155 0  -6.999795927850369 10.00019088438413 0  -5.999751830625161 10.00028798777691 0  -4.99979054794811 10.00038645620772 0  -3.999860096184432 10.00016305952037 0  -2.999846671667992 9.999971459452949 0  -1.999873677648671 10.00000745696804 0  -0.9999344939002111 10.0000190787193 0  2.158395339708005e-05 10.00002190685992 0  0.9999785773869543 10.00002139687585 0  1.999922048864917 10.00002139699943 0  2.999871340214498 9.999955578660179 0  3.999876737066625 10.00012145230362 0  4.99980378935174 10.0003407275668 0  5.999767988105932 10.00025550619279 0  6.999809493636864 10.00016983360901 0  7.999894797975357 10.00008468609137 0  9 10 0  -9 12 0  -7.999727181922011 12.000133859781 0  -6.999468680619418 12.00027392709396 0  -5.999240696702645 12.00042763428792 0  -4.999063196600851 12.00060538178153 0  -3.999099303748057 12.00019506758933 0  -2.999065117675005 11.99978837450944 0  -1.999335752102869 11.99984127558914 0  -0.9996409131329219 11.99987197431166 0  3.983698102648728e-05 11.99988170473399 0  0.9997152937333448 11.99986992514148 0  1.999392307639827 11.99983224255985 0  2.99908409156103 11.99975735266329 0  3.999114497908603 12.00015409934536 0  4.99909510438613 12.00055373019969 0  5.999275389262064 12.00038874539649 0  6.999496576521902 12.00024814014895 0  7.999742492685439 12.0001210375506 0  9 12 0  -9 14 0  -7.999509734245827 14.00014785252878 0  -6.999019112497859 14.00030246532707 0  -5.998527197651659 14.00047119988453 0  -4.998031345649048 14.00066259206709 0  -3.998026940610463 14.00017861935929 0  -2.998022212029554 13.9996882835774 0  -1.998660015858058 13.99976396138018 0  -0.9992911221618404 13.99980879437817 0  7.926696729471131e-05 13.99982758658538 0  0.9994459611693375 13.9998221169039 0  1.998803856509997 13.99979198988081 0  2.998148562394237 13.99973546750672 0  3.99814130619164 14.00016756848775 0  4.998140699121295 14.00059653195511 0  5.998618867471847 14.00042456797841 0  6.999084562088091 14.00027249612919 0  7.999543710802278 14.0001331612362 0  9 14 0  -9 16 0  -7.999293494270263 16.00013482561069 0  -6.998574361145469 16.00027456148173 0  -5.997828876012069 16.0004242020648 0  -4.99704094547273 16.00058880856013 0  -3.997014113891189 16.00016869750404 0  -2.997038240203231 15.9997505861207 0  -1.998011613206579 15.99981019052855 0  -0.9989475685655221 15.99984990859104 0  0.0001334513731433128 15.99987063229299 0  0.999212024270261 15.99987305036598 0  1.998268621376523 15.9998574287113 0  2.997282396996506 15.99982370663632 0  3.997252995729327 16.00017709903826 0  4.997278913280575 16.00053060298282 0  5.998011715154309 16.00038088771908 0  6.998698416572634 16.00024595018907 0  7.999356181995355 16.00012061396736 0  9 16 0  -9 18 0  -7.999127534921786 18.00010216333335 0  -6.99823460616862 18.00020706075789 0  -5.997299680058845 18.00031737529367 0  -4.996299034314658 18.00043565506537 0  -3.99625802512822 18.00016451130726 0  -2.996295997508862 17.9998935265122 0  -1.99751356340092 17.99993610036577 0  -0.9986722514849348 17.99996713579734 0  0.0001973797584785099 17.99998703338181 0  0.9990662304530027 17.99999627123956 0  1.997905235993178 17.99999539071925 0  2.996683969091902 17.99998505456052 0  3.996642990953934 18.00018449380472 0  4.996682435295911 18.00038305477168 0  5.9975883726303 18.00027813682157 0  6.998427648079946 18.00018102341103 0  7.999224237334232 18.00008918579999 0  9 18 0  -9 20 0  -7.999043216335703 20.00005856082997 0  -6.998062421349198 20.000117895867 0  -5.997032677455527 20.00017869770217 0  -4.995927182340599 20.000241486451 0  -3.99588016679143 20.00016262574129 0  -2.995924951214001 20.00008386053536 0  -1.997251779488242 20.00010825942467 0  -0.9985105765697742 20.00012901134276 0  0.0002643899461181368 20.0001461699179 0  0.999040101262513 20.00016005780406 0  1.997783586756932 20.00017125909597 0  2.996460726895879 20.00018064200109 0  3.996415640298595 20.00018825871006 0  4.996460596370058 20.00019513378813 0  5.997431074481055 20.00014417813916 0  6.998327257731177 20.00009499824529 0  7.999175412108306 20.00004714684676 0  8.999999999967711 20.00000000000134 0  -9 22 0  -7.999054747467889 22.00001185644735 0  -6.998085619281268 22.00002286069739 0  -5.997067993026277 22.00003206955633 0  -4.995975747779403 22.00003835567962 0  -3.995929647236931 22.00016306691304 0  -2.99597411125033 22.00028779710079 0  -1.997262868849551 22.00029503731378 0  -0.998484320762354 22.00030529351511 0  0.0003284039344620904 22.00031842133062 0  0.9991431994470205 22.00033461912566 0  1.997928023378302 22.00035442220377 0  2.996649938593764 22.00037870971904 0  3.996607291964077 22.00018941274979 0  4.996651016254449 21.99999947774046 0  5.997570375064599 22.00000311606263 0  6.998418637955639 22.0000036570629 0  7.999220692592421 22.00000228447848 0  9 22 0  -9 24 0  -7.999161585942133 23.99996855932378 0  -6.998302395751747 23.99993500382693 0  -5.99740109859479 23.99989712600052 0  -4.996435237058388 23.99985253540232 0  -3.996395478240613 24.00016512379339 0  -2.996434131306088 24.00047761254919 0  -1.997543893178706 24.00046972220049 0  -0.9985951026044381 24.00047006085863 0  0.0003841456942556322 24.0004783631496 0  0.9993665374951124 24.00049472638581 0  1.998324830164393 24.00051960893884 0  2.997231144144803 24.00055383328799 0  3.997196005456682 24.00018823187642 0  4.997233065180171 23.99982204341088 0  5.997993492864375 23.99987444458804 0  6.998694515470048 23.99991997112913 0  7.999356809422176 23.99996106931638 0  9 24 0  -9 26 0  -7.999351311553966 25.99993372358334 0  -6.998687171977974 25.99986443438949 0  -5.997991767490048 25.99978902766302 0  -4.997248527581965 25.99970421770785 0  -3.997219140542021 26.00016815918829 0  -2.997247817454314 26.00063191443925 0  -1.998059802774869 26.00061142757643 0  -0.9988280201949087 26.00060290905602 0  0.0004273438909236787 26.00060599453527 0  0.9996866395371982 26.00062068655688 0  1.99893029488439 26.00064735393045 0  2.998138352889114 26.00068673253501 0  3.998114425342274 26.00018512608602 0  4.998140873398771 25.99968302119029 0  5.99865365197601 25.99977327957668 0  6.999124954677239 25.99985400568776 0  7.999569167939998 25.99992852999797 0  9 26 0  -9 28 0  -7.999602596867066 27.99991094175983 0  -6.999196558058173 27.99981833398333 0  -5.998773074330564 27.99971853643197 0  -4.998322944343593 27.99960772917064 0  -3.998306549502284 28.00017166420045 0  -2.998322402648104 28.00073534868481 0  -1.998751439674354 28.00070519546748 0  -0.9991555566070984 28.00068927358592 0  0.0004548473358536506 28.00068712923049 0  1.000069668216396 28.00069867241333 0  1.99967888116165 28.00072417672794 0  2.999272323718677 28.00076427953937 0  3.999261981554894 28.00018061823434 0  4.999275286633114 27.99959656329052 0  5.999479099554595 27.99971025712628 0  6.999663361333589 27.99981285886893 
[...]
<PointData  Vectors="f_44-2"> 
<DataArray  type="Float64"  Name="f_44-2"  NumberOfComponents="3" format="ascii">0.0000000000000000e+00 0.0000000000000000e+00 0.0000000000000000e+00  0.0000000000000000e+00 0.0000000000000000e+00 0.0000000000000000e+00  0.0000000000000000e+00 0.0000000000000000e+00 0.0000000000000000e+00  0.0000000000000000e+00 0.0000000000000000e+00 0.0000000000000000e+00  0.0000000000000000e+00 0.0000000000000000e+00 0.0000000000000000e+00  0.0000000000000000e+00 0.0000000000000000e+00 0.0000000000000000e+00  0.0000000000000000e+00 0.0000000000000000e+00 0.0000000000000000e+00  0.0000000000000000e+00 0.0000000000000000e+00 0.0000000000000000e+00  0.0000000000000000e+00 0.0000000000000000e+00 0.0000000000000000e+00  0.0000000000000000e+00 0.0000000000000000e+00 0.0000000000000000e+00  0.0000000000000000e+00 0.0000000000000000e+00 0.0000000000000000e+00  0.0000000000000000e+00 0.0000000000000000e+00 0.0000000000000000e+00  0.0000000000000000e+00 0.0000000000000000e+00 0.0000000000000000e+00  0.0000000000000000e+00 0.0000000000000000e+00 0.0000000000000000e+00  0.0000000000000000e+00 0.0000000000000000e+00 0.0000000000000000e+00  0.0000000000000000e+00 0.0000000000000000e+00 0.0000000000000000e+00  0.0000000000000000e+00 0.0000000000000000e+00 0.0000000000000000e+00  0.0000000000000000e+00 0.0000000000000000e+00 0.0000000000000000e+00  0.0000000000000000e+00 0.0000000000000000e+00 0.0000000000000000e+00  0.0000000000000000e+00 0.0000000000000000e+00 0.0000000000000000e+00  1.0265908517957513e-04 1.4869940745314785e-04 0.0000000000000000e+00  2.1585002018290463e-04 2.7971272726604323e-04 0.0000000000000000e+00  3.6323348479991053e-04 3.7872103879017338e-04 0.0000000000000000e+00  5.9798212161198789e-04 4.3961853436746528e-04 0.0000000000000000e+00  3.6304337969558678e-04 3.2760417078468728e-04 0.0000000000000000e+00  1.1912584383558089e-04 2.2439970043736080e-04 0.0000000000000000e+00  -3.0510364645459981e-06 1.2889199203524874e-04 0.0000000000000000e+00  -2.9732575016288968e-05 5.3509822124351966e-05 0.0000000000000000e+00  3.1445699931193379e-06 2.0592665170012026e-05 0.0000000000000000e+00  4.0190261931068780e-05 4.3616313280198804e-05 0.0000000000000000e+00  2.7618086277885453e-05 1.1715625958921934e-04 0.0000000000000000e+00  -7.0960164852445495e-05 2.0778891066093973e-04 0.0000000000000000e+00  -2.6726389910036036e-04 3.0574568837793187e-04 0.0000000000000000e+00  -5.4962171358317175e-04 3.4817816572189534e-04 0.0000000000000000e+00  -3.3294527737456810e-04 3.3058180672884501e-04 0.0000000000000000e+00  -1.9802351325905280e-04 2.5373418751343450e-04 0.0000000000000000e+00  -9.4412790697974628e-05 1.3700156812008948e-04 0.0000000000000000e+00  0.0000000000000000e+00 0.0000000000000000e+00 0.0000000000000000e+00  0.0000000000000000e+00 0.0000000000000000e+00 0.0000000000000000e+00  1.6319330982819251e-04 3.6815197308324131e-04 0.0000000000000000e+00  2.9493004350554996e-04 6.8745216680673148e-04 0.0000000000000000e+00  3.7700757822586905e-04 9.0988893836995246e-04 0.0000000000000000e+00  4.1360853697832876e-04 9.8939443584806705e-04 0.0000000000000000e+00  7.4589516588228791e-05 9.4044646400274275e-04 0.0000000000000000e+00  -1.5632759358460472e-04 6.5511332613007913e-04 0.0000000000000000e+00  -2.2392443800483335e-04 2.8293199106258870e-04 0.0000000000000000e+00  -1.4974455392232586e-04 -1.6106305238451541e-05 0.0000000000000000e+00  1.9374936114835655e-06 -1.3649631310620329e-04 0.0000000000000000e+00  1.5700497115002802e-04 -4.1984006582603538e-05 0.0000000000000000e+00  2.4245251626170991e-04 2.1337997014344941e-04 0.0000000000000000e+00  1.8535790813306287e-04 5.5941269965364114e-04 0.0000000000000000e+00  -3.6053468417607676e-05 9.0757017589902008e-04 0.0000000000000000e+00  -3.6719016720302241e-04 1.0261135455731020e-03 0.0000000000000000e+00  -3.3887303238123783e-04 8.9817299065833188e-04 0.0000000000000000e+00  -2.7080421532650091e-04 6.6701602597466175e-04 0.0000000000000000e+00  -1.5203650717731721e-04 3.5508702635920597e-04 0.0000000000000000e+00  0.0000000000000000e+00 0.0000000000000000e+00 0.0000000000000000e+00  0.0000000000000000e+00 0.0000000000000000e+00 0.0000000000000000e+00  3.4956533462923695e-04 7.8305332499839248e-04 0.0000000000000000e+00  5.7264794244926286e-04 1.4826835604100845e-03 0.0000000000000000e+00  5.7268686445515610e-04 2.0128181238431675e-03 0.0000000000000000e+00  3.2152434276340978e-04 2.2904581894707412e-03 0.0000000000000000e+00  -3.3288064612998835e-04 1.8707962764811569e-03 0.0000000000000000e+00  -6.3579832473124062e-04 9.9017752909705812e-04 0.0000000000000000e+00  -5.3053913787947553e-04 6.5979669008010611e-05 0.0000000000000000e+00  -2.5157857677842913e-04 -4.4913985935370548e-04 0.0000000000000000e+00  3.1826569868971609e-05 -5.5338390647896379e-04 0.0000000000000000e+00  2.8584243799635665e-04 -3.8548324000184207e-04 0.0000000000000000e+00  4.7644144954865327e-04 7.8028013906466005e-05 0.0000000000000000e+00  5.4113695531409335e-04 8.5943239262984545e-04 0.0000000000000000e+00  3.7789561247548759e-04 1.6694173862232956e-03 0.0000000000000000e+00  -1.8352807119391309e-04 2.0703916897552551e-03 0.0000000000000000e+00  -5.0380850021401356e-04 1.8786625177290366e-03 0.0000000000000000e+00  -5.4639022431090091e-04 1.4034229032857874e-03 0.0000000000000000e+00  -3.4274957969927778e-04 7.4583938133626453e-04 0.0000000000000000e+00  0.0000000000000000e+00 0.0000000000000000e+00 0.0000000000000000e+00  0.0000000000000000e+00 0.0000000000000000e+00 0.0000000000000000e+00  1.0413680677476000e-03 1.5318368425729760e-03 0.0000000000000000e+00  1.7426118329353065e-03 2.9561005616849860e-03 0.0000000000000000e+00  1.7732095512149142e-03 4.1259232042149610e-03 0.0000000000000000e+00  8.4778673777983744e-04 4.7983752153604280e-03 0.0000000000000000e+00  -4.0675013499217525e-04 2.8584946666811574e-03 0.0000000000000000e+00  -1.9251525378301713e-04 5.7382976443368973e-04 0.0000000000000000e+00  2.6301753701952720e-04 -5.4535312254807070e-04 0.0000000000000000e+00  2.9466783078875390e-04 -6.8013745391755115e-04 0.0000000000000000e+00  1.0584416608648042e-05 -7.1983204989958252e-04 0.0000000000000000e+00  -2.0356621753396588e-04 -8.2885768468681973e-04 0.0000000000000000e+00  -1.2403506281332148e-04 -3.5844102221835241e-04 0.0000000000000000e+00  4.0853408615756226e-04 4.4473061562392603e-04 0.0000000000000000e+00  5.7648310939967240e-04 2.4153428660587473e-03 0.0000000000000000e+00  -6.6337034997985308e-04 4.6329636477686360e-03 0.0000000000000000e+00  -1.7796783812594355e-03 3.9934587020450272e-03 0.0000000000000000e+00  -1.8070214269446019e-03 2.8694054042818864e-03 0.0000000000000000e+00  -1.0900296368464763e-03 1.4897648199071367e-03 0.0000000000000000e+00  0.0000000000000000e+00 0.0000000000000000e+00 0.0000000000000000e+00  0.0000000000000000e+00 0.0000000000000000e+00 0.0000000000000000e+00  3.0946282004624551e-03 2.7116846852149735e-03 0.0000000000000000e+00  5.5970483907355310e-03 5.4484761755167650e-03 0.0000000000000000e+00  6.7987683456720762e-03 8.2304810555880754e-03 0.0000000000000000e+00  5.7131729769040358e-03 1.1067008773784699e-02 0.0000000000000000e+00  3.7290789118616719e-03 4.8231169449634735e-03 0.0000000000000000e+00  4.0188460351859778e-03 -5.6014361304677982e-04 0.0000000000000000e+00  3.2008442386892359e-03 3.3818589123230162e-04 0.0000000000000000e+00  1.4592471935665542e-03 6.2680145466319573e-04 0.0000000000000000e+00  1.7016719124673222e-04 6.9684878658240123e-04 0.0000000000000000e+00  -1.1096602620415262e-03 6.9393879562272098e-04 0.0000000000000000e+00  -2.8086529979890651e-03 7.3555632269394096e-04 0.0000000000000000e+00  -4.3107103074304905e-03 -1.1757344844757634e-03 0.0000000000000000e+00  -4.1490369847430129e-03 3.9568473611561444e-03 0.0000000000000000e+00  -6.4094714723900393e-03 1.0706202797959915e-02 0.0000000000000000e+00  -7.4133409745123875e-03 8.0479235868207624e-03 0.0000000000000000e+00  -6.0461998813333374e-03 5.3585563515102666e-03 0.0000000000000000e+00  -3.3302426564205817e-03 2.6747036718525307e-03 0.0000000000000000e+00  0.0000000000000000e+00 0.0000000000000000e+00 0.0000000000000000e+00  0.0000000000000000e+00 0.0000000000000000e+00 0.0000000000000000e+00  7.5211807103613198e-03 3.7927565614694811e-03 0.0000000000000000e+00  1.4661562124945781e-02 7.7627866964201540e-03 0.0000000000000000e+00  2.0988382771656978e-02 1.2121861488437592e-02 0.0000000000000000e+00  2.5967011601670614e-02 1.7165330066513544e-02 0.0000000000000000e+00  2.4938820312173558e-02 5.8149340414270058e-03 0.0000000000000000e+00  2.5806099380892400e-02 -5.4282615810296664e-03 0.0000000000000000e+00  1.7667517852821155e-02 -4.0897624859464795e-03 0.0000000000000000e+00  8.6321481339262599e-03 -3.3685639584372712e-03 0.0000000000000000e+00  -7.4085749103798841e-04 -3.2350195819319627e-03 0.0000000000000000e+00  -1.0202242303618393e-02 -3.7137470907752973e-03 0.0000000000000000e+00  -1.9540046480906691e-02 -4.9426034076284486e-03 0.0000000000000000e+00  -2.8332785381774899e-02 -7.2652810997203658e-03 0.0000000000000000e+00  -2.7401881121169615e-02 4.9977211204652117e-03 0.0000000000000000e+00  -2.8076793430377559e-02 1.7354181691516857e-02 0.0000000000000000e+00  -2.2540408467938394e-02 1.2230082979919744e-02 0.0000000000000000e+00  -1.5685307231465211e-02 7.8277025504129693e-03 0.0000000000000000e+00  -8.0304381187792772e-03 3.8243158928451758e-03 0.0000000000000000e+00  0.0000000000000000e+00 0.0000000000000000e+00 0.0000000000000000e+00  0.0000000000000000e+00 0.0000000000000000e+00 0.0000000000000000e+00  1.3480161439134150e-02 4.1666029238610781e-03 0.0000000000000000e+00  2.6995093992738580e-02 8.5241538090121572e-03 0.0000000000000000e+00  4.0596032260266729e-02 1.3280383583637805e-02 0.0000000000000000e+00  5.4384367876130935e-02 1.8675675145402557e-02 0.0000000000000000e+00  5.4496032069503285e-02 5.4484860371639132e-03 0.0000000000000000e+00  5.4525806464828006e-02 -7.9475622813997629e-03 0.0000000000000000e+00  3.5703981480618603e-02 -6.0450801541117203e-03 0.0000000000000000e+00  1.7147553166049712e-02 -5.0102560044480342e-03 0.0000000000000000e+00  -1.2970926180616521e-03 -4.7149145684573747e-03 0.0000000000000000e+00  -1.9776980038890328e-02 -5.1178121775870798e-03 0.0000000000000000e+00  -3.8427831626842567e-02 -6.2408515752572563e-03 0.0000000000000000e+00  -5.7354531576706204e-02 -8.1451550893766322e-03 0.0000000000000000e+00  -5.7545958836192609e-02 5.4479810002680115e-03 0.0000000000000000e+00  -5.7664798923424077e-02 1.8956135561286308e-02 0.0000000000000000e+00  -4.2962843351395476e-02 1.3532040557665350e-02 0.0000000000000000e+00  -2.8535435638879666e-02 8.7048391480157600e-03 0.0000000000000000e+00  -1.4240319541615120e-02 4.2598013847969162e-03 0.0000000000000000e+00  0.0000000000000000e+00 0.0000000000000000e+00 0.0000000000000000e+00  0.0000000000000000e+00 0.0000000000000000e+00 0.0000000000000000e+00  1.9312687138379220e-02 3.7778995246462764e-03 0.0000000000000000e+00  3.9005389848554853e-02 7.6934274371435619e-03 0.0000000000000000e+00  5.9487526225022840e-02 1.1886582663923298e-02 0.0000000000000000e+00  8.1238296535057153e-02 1.6499051549021527e-02 0.0000000000000000e+00  8.1985179350044499e-02 5.2598182670073089e-03 0.0000000000000000e+00  8.1214050152475778e-02 -5.9146000608447206e-03 0.0000000000000000e+00  5.2646682972477842e-02 -4.5198643027065319e-03 0.0000000000000000e+00  2.5201257096264910e-02 -3.6860845132198955e-03 0.0000000000000000e+00  -1.7127325477339719e-03 -3.3947517803785891e-03 0.0000000000000000e+00  -2.8654273664037919e-02 -3.6345595749831443e-03 0.0000000000000000e+00  -5.6182607016620104e-02 -4.4071876176762937e-03 0.0000000000000000e+00  -8.4891813221578474e-02 -5.7245249544909975e-03 0.0000000000000000e+00  -8.5748379189618348e-02 5.7799418048699158e-03 0.0000000000000000e+00  -8.5059652076519901e-02 1.7297866483604728e-02 0.0000000000000000e+00  -6.2321562894088620e-02 1.2450802559735024e-02 0.0000000000000000e+00  -4.0877168269921139e-02 8.0563937231109949e-03 0.0000000000000000e+00  -2.0243313724490432e-02 3.9559437888344370e-03 0.0000000000000000e+00  0.0000000000000000e+00 0.0000000000000000e+00 0.0000000000000000e+00  0.0000000000000000e+00 0.0000000000000000e+00 0.0000000000000000e+00  2.3640951872333442e-02 2.8389982960293440e-03 0.0000000000000000e+00  4.7879285695122183e-02 5.7534848735211344e-03 0.0000000000000000e+00  7.3342780354796105e-02 8.8175550923348511e-03 0.0000000000000000e+00  1.0072220319789704e-01 1.2101336893675244e-02 0.0000000000000000e+00  1.0187036743889058e-01 5.2302401116524361e-03 0.0000000000000000e+00  1.0072061063039985e-01 -1.6274635939379570e-03 0.0000000000000000e+00  6.5061560925445461e-02 -7.4415377316183133e-04 0.0000000000000000e+00  3.1109692503874894e-02 -1.8381868011635614e-04 0.0000000000000000e+00  -2.0197465335208497e-03 5.8147450760241420e-05 0.0000000000000000e+00  -3.5168380136200841e-02 -1.2076040236383265e-05 0.0000000000000000e+00  -6.9177686002407146e-02 -3.8709426132605676e-04 0.0000000000000000e+00  -1.0492801226874453e-01 -1.0566735033742433e-03 0.0000000000000000e+00  -1.0614238980805527e-01 6.0499321413599004e-03 0.0000000000000000e+00  -1.0502590876382668e-01 1.3139790099006581e-02 0.0000000000000000e+00  -7.6544576014945312e-02 9.5616557344314623e-03 0.0000000000000000e+00  -5.0001111101229664e-02 6.2337712906107940e-03 0.0000000000000000e+00  -2.4697936938442168e-02 3.0746361118255670e-03 0.0000000000000000e+00  0.0000000000000000e+00 0.0000000000000000e+00 0.0000000000000000e+00  0.0000000000000000e+00 0.0000000000000000e+00 0.0000000000000000e+00  2.5592058064891735e-02 1.5979163563565424e-03 0.0000000000000000e+00  5.1876909593017342e-02 3.2154685187974134e-03 0.0000000000000000e+00  7.9574031966472253e-02 4.8700265807441693e-03 0.0000000000000000e+00  1.0945668407215300e-01 6.5740579949244036e-03 0.0000000000000000e+00  1.1077162718889889e-01 5.2637886239874469e-03 0.0000000000000000e+00  1.0944372029996847e-01 3.9642600555611978e-03 0.0000000000000000e+00  7.0602782033025391e-02 4.3293202786669188e-03 0.0000000000000000e+00  3.3702755754731820e-02 4.5980392796136794e-03 0.0000000000000000e+00  -2.2515655697818238e-03 4.7657912238327372e-03 0.0000000000000000e+00  -3.8221274491961006e-02 4.8353407099061023e-03 0.0000000000000000e+00  -7.5166782461987380e-02 4.8165190485667461e-03 0.0000000000000000e+00  -1.1408280140538278e-01 4.7268733932948771e-03 0.0000000000000000e+00  -1.1543842629162070e-01 6.2111758708449294e-03 0.0000000000000000e+00  -1.1412859883266620e-01 7.6817574606953647e-03 0.0000000000000000e+00  -8.3056015896463678e-02 5.6721907628152117e-03 0.0000000000000000e+00  -5.4187768252611755e-02 3.7366327699738175e-03 0.0000000000000000e+00  -2.6744316900033444e-02 1.8544536360219491e-03 0.0000000000000000e+00  1.4202497580643758e-09 1.4860399303293147e-09 0.0000000000000000e+00  0.0000000000000000e+00 0.0000000000000000e+00 0.0000000000000000e+00  2.4783345564079004e-02 2.7802104352280384e-04 0.0000000000000000e+00  5.0249535538143930e-02 5.2930140303810184e-04 0.0000000000000000e+00  7.7103373722413451e-02 7.2452617793354655e-04 0.0000000000000000e+00  1.0609278476263768e-01 8.2921210858997898e-04 0.0000000000000000e+00  1.0737399340834541e-01 5.3562824508908979e-03 0.0000000000000000e+00  1.0606949519020389e-01 9.8907424352314040e-03 0.0000000000000000e+00  6.8334699764647844e-02 9.7900614051029382e-03 0.0000000000000000e+00  3.2493046548641623e-02 9.7857004399914595e-03 0.0000000000000000e+00  -2.4223400400659651e-03 9.8682755929132646e-03 0.0000000000000000e+00  -3.7350305346043708e-02 1.0038074806323644e-02 0.0000000000000000e+00  -7.3229469191510313e-02 1.0304856926829626e-02 0.0000000000000000e+00  -1.1102611857855982e-01 1.0688024565901644e-02 0.0000000000000000e+00  -1.1233150108747066e-01 6.2883294079163149e-03 0.0000000000000000e+00  -1.1102992275848646e-01 1.8766894735092793e-03 0.0000000000000000e+00  -8.0788509245086695e-02 1.4862969196075789e-03 0.0000000000000000e+00  -5.2697820303359490e-02 1.0258782898786606e-03 0.0000000000000000e+00  -2.6004888694811018e-02 5.2295444811244240e-04 0.0000000000000000e+00  0.0000000000000000e+00 0.0000000000000000e+00 0.0000000000000000e+00  0.0000000000000000e+00 0.0000000000000000e+00 0.0000000000000000e+00  2.1254750541587257e-02 -9.3494909882632963e-04 0.0000000000000000e+00  4.3095925949754393e-02 -1.9327354231846051e-03 0.0000000000000000e+00  6.6130893363985713e-02 -3.0590349901637895e-03 0.0000000000000000e+00  9.0994694508304344e-02 -4.3843732081632978e-03 0.0000000000000000e+00  9.2083965260812764e-02 5.4820484592503129e-03 0.0000000000000000e+00  9.0958569102046666e-02 1.5351698160790640e-02 0.0000000000000000e+00  5.8450102095170507e-02 1.4863694887034476e-02 0.0000000000000000e+00  2.7557894489934349e-02 1.4623865776224133e-02 0.0000000000000000e+00  -2.5419449104257630e-03 1.4620065176160978e-02 0.0000000000000000e+00  -3.2652393861257581e-02 1.4850913612458591e-02 0.0000000000000000e+00  -6.3576288248488863e-02 1.5325379414112343e-02 0.0000000000000000e+00  -9.6137090570906511e-02 1.6062862629146100e-02 0.0000000000000000e+00  -9.7241694284563876e-02 6.2830141715132602e-03 0.0000000000000000e+00  -9.6113511205608140e-02 -3.5081750371867646e-03 0.0000000000000000e+00  -6.9955131834993980e-02 -2.4196256244692470e-03 0.0000000000000000e+00  -4.5638758290663071e-02 -1.5149619013313394e-03 0.0000000000000000e+00  -2.2523215504805263e-02 -7.2856877800241181e-04 0.0000000000000000e+00  0.0000000000000000e+00 0.0000000000000000e+00 0.0000000000000000e+00  0.0000000000000000e+00 0.0000000000000000e+00 0.0000000000000000e+00  1.5385168893068926e-02 -1.8963775573885744e-03 0.0000000000000000e+00  3.1199513620402561e-02 -3.8814455996079469e-03 0.0000000000000000e+00  4.7882712941674219e-02 -6.0465774343138115e-03 0.0000000000000000e+00  6.5896263166156710e-02 -8.4882861357556093e-03 0.0000000000000000e+00  6.6676445996339706e-02 5.6192777825348102e-03 0.0000000000000000e+00  6.5849400972908784e-02 1.9727477908904230e-02 0.0000000000000000e+00  4.2057992776759784e-02 1.8942224189918925e-02 0.0000000000000000e+00  1.9434226087637427e-02 1.8513885442318547e-02 0.0000000000000000e+00  -2.6173187620399541e-03 1.8429140634742252e-02 0.0000000000000000e+00  -2.4677927765178121e-02 1.8685010289931955e-02 0.0000000000000000e+00  -4.7329282512247689e-02 1.9289313320707893e-02 0.0000000000000000e+00  -7.1166459404145219e-02 2.0260647472988134e-02 0.0000000000000000e+00  -7.1956812457644556e-02 6.2029133145586630e-03 0.0000000000000000e+00  -7.1124124607598066e-02 -7.8637109871051263e-03 0.0000000000000000e+00  -5.1790833159887278e-02 -5.5897869402391862e-03 0.0000000000000000e+00  -3.3798885440905931e-02 -3.5824756297188971e-03 0.0000000000000000e+00  -1.6683014076758207e-02 -1.7485606838363026e-03 0.0000000000000000e+00  0.0000000000000000e+00 0.0000000000000000e+00 0.0000000000000000e+00  0.0000000000000000e+00 0.0000000000000000e+00 0.0000000000000000e+00  7.8136977651275617e-03 -2.5028093277705819e-03 0.0000000000000000e+00  1.5854805295528820e-02 -5.1098165683915705e-03 0.0000000000000000e+00  2.4355173069195008e-02 -7.9278816523280747e-03 0.0000000000000000e+00  3.3558234348977457e-02 -1.1069097941260273e-02 0.0000000000000000e+00  3.3954426061487054e-02 5.7529523795363125e-03 0.0000000000000000e+00  3.3508619349993739e-02 2.2574349641289324e-02 0.0000000000000000e+00  2.0953907175061535e-02 2.1588454361819880e-02 0.0000000000000000e+00  9.0027147008632392e-03 2.1025972740457206e-02 0.0000000000000000e+00  -2.6536045868153094e-03 2.0871407278650528e-02 0.0000000000000000e+00  -1.4318263182027823e-02 2.1120726865253975e-02 0.0000000000000000e+00  -2.6294309586056389e-02 2.1780544190379284e-02 0.0000000000000000e+00  -3.8891228738571301e-02 2.2868178089894112e-02 0.0000000000000000e+00  -3.9290204234045605e-02 6.0625265039782102e-03 0.0000000000000000e+00  -3.8833157112846531e-02 -1.0748358913118986e-02 0.0000000000000000e+00  -2.8299882928071878e-02 -7.692952402973