<?xml version="1.0"?>
<VTKFile type="UnstructuredGrid"  version="0.1"  >
<UnstructuredGrid>
<Piece  NumberOfPoints="589" NumberOfCells="1080">
<Points>
<DataArray  type="Float64"  NumberOfComponents="3"  format="ascii">-9 0 0  -8 0 0  -7 0 0  -6 0 0  -5 0 0  -4 0 0  -3 0 0  -2 0 0  -1 0 0  0 0 0  1 0 0  2 0 0  3 0 0  4 0 0  5 0 0  6 0 0  7 0 0  8 0 0  9 0 0  -9 2 0  -8.000007850733583 1.999987876451917 0  -7.000016478949187 1.999977274633683 0  -6.000027736596556 1.99996943354176 0  -5.000045876284018 1.999964906897827 0  -4.000026854780432 1.999973674117236 0  -3.000007309503769 1.999982143819713 0  -1.999997839786311 1.999990157310148 0  -0.9999963968524499 1.999996489140376 0  4.148160848644523e-08 1.999999245466187 0  0.9999961557084479 1.999997258340315 0  1.99999650513072 1.999990983851538 0  3.000004163726766 1.999983284017968 0  4.000020113417356 1.999975004140589 0  5.000043308281191 1.999971476658997 0  6.000026244947358 1.999972723074556 0  7.000015661998773 1.999978981893368 0  8.000007493965521 1.999988628246289 0  9 2 0  -9.000000000004983 4 0  -8.000012591356862 3.999969666829562 0  -7.000022440228453 3.999943506988252 0  -6.000027944945294 3.999925609633599 0  -5.000029445304053 3.999919875642667 0  -4.000001526065022 3.999923921437389 0  -2.999982836675291 3.999947985561798 0  -1.999978078695029 3.999979367546376 0  -0.9999854114816948 4.000004619823993 0  6.859176843859338e-07 4.000014739093626 0  0.99998651713535 4.000006597000891 0  1.999978295688162 3.999984803611973 0  2.999982252986644 3.999955298534609 0  4.000000303664598 3.99992552330478 0  5.000027909409365 3.999915219226548 0  6.000026568149242 3.999925397138662 0  7.000021664085306 3.99994441461362 0  8.000012291275008 3.999970355884478 0  9 4 0  -9 6 0  -8.000028300848863 5.999934768101548 0  -7.000045778046849 5.999876693303365 0  -6.000044170693034 5.999833136060566 0  -5.000021102601266 5.999811161703207 0  -3.999966308096221 5.999846841646843 0  -2.99994142679327 5.999921627439933 0  -1.999951344886303 6.000000077364288 0  -0.9999760240508329 6.00004372343264 0  -1.057489437081367e-06 6.000052413333202 0  0.999976372168592 6.000038074885314 0  1.999959135594372 5.999998518648766 0  2.99995267327518 5.999931677882827 0  3.999965758923598 5.999862262691734 0  5.000012929431479 5.999827586240217 0  6.000041142512223 5.999842716660079 0  7.000045539955373 5.999882156424162 0  8.000028760685325 5.999937276210767 0  9 6 0  -9 8 0  -8.000087292727139 7.99987126003825 0  -7.000145446577839 7.999751830462229 0  -6.000146234853593 7.999654351837132 0  -5.00006548891909 7.999599652314901 0  -3.999959334992142 7.999764965389641 0  -2.999978711352771 7.999959305121247 0  -2.000018417355864 8.00005414706558 0  -1.000021796417292 8.000065128523357 0  1.859198799167217e-06 8.000068365841804 0  1.000019423305031 8.000077983129758 0  2.000011824451574 8.000037890584364 0  2.999965119175074 7.999969708551911 0  3.999949173291033 7.999800939438972 0  5.000054239366227 7.999610454013379 0  6.000150964204495 7.999662828296993 0  7.000154105061358 7.999757200762117 0  8.000093140595723 7.999873797649275 0  9 8 0  -9 10 0  -8.000262741389156 9.999770589984085 0  -7.000474470956847 9.999539287133116 0  -6.000574334185552 9.999304654684144 0  -5.000477545016744 9.999066346943939 0  -4.000309328206788 9.999600096739334 0  -3.000336518835255 10.00005907936481 0  -2.000268110880378 9.999980488189291 0  -1.000120259750435 9.999955256833655 0  -1.112932604467511e-05 9.999949079530156 0  1.000097311850574 9.999949490052398 0  2.000242021384839 9.999946347632747 0  3.000368965678564 10.00011303400519 0  4.000352384900618 9.999672306087749 0  5.000545679734513 9.999090629683769 0  6.00063490593741 9.999315114153527 0  7.000518954914381 9.999543440781402 0  8.000286135550224 9.999771956441432 0  9 10 0  -9 12 0  -8.000641779929675 11.9996776611063 0  -7.001250213274386 11.99934034882865 0  -6.001787598296663 11.99897015887465 0  -5.002207106422653 11.99854213588243 0  -4.002121197276872 11.99951505344726 0  -3.002198592447427 12.00047813424635 0  -2.001501127265287 12.00036279314389 0  -1.000726572925749 12.00030104647778 0  7.678766712359996e-05 12.00029028051584 0  1.000887299457508 12.00033262126723 0  2.001686465027873 12.00044000211907 0  3.00243752390836 12.00064217312027 0  4.002352841028324 11.99958285899145 0  5.002409166709771 11.99851463095766 0  6.001938489250237 11.99895241733178 0  7.001350743619944 11.99932916161473 0  8.000692068043318 11.99967215047518 0  9 12 0  -9 14 0  -8.001153261303635 13.99964481771287 0  -7.002308637537609 13.99927325361305 0  -6.003469783260063 13.99886748095659 0  -5.004644261601134 13.99840683687529 0  -4.004656655045785 13.9995432044668 0  -3.004663292956829 14.00069386565612 0  -2.003044284109614 14.0005310749631 0  -1.001448876894874 14.0004432274371 0  0.000136356777048118 14.00041934621927 0  1.001724109965741 14.00045595374658 0  2.003326036945385 14.00055501781667 0  3.004951125627521 14.00072188712023 0  4.004962695888138 13.99954110646637 0  5.004970704182156 13.99836747370254 0  6.003707999172877 13.99883465748286 0  7.002464876981181 13.99925036433129 0  8.001230712115417 13.99963315422027 0  9 14 0  -9 16 0  -8.0016549966887 15.9996776293039 0  -7.003341863473367 15.99934326347327 0  -6.005095222219228 15.99898469667663 0  -5.006955275714262 15.99858948920295 0  -4.007022001862877 15.99955707245346 0  -3.006958853353587 16.00051944546988 0  -2.004496386051136 16.0004006290161 0  -1.002131937289851 16.00033038678077 0  0.0001859402490906113 16.00030722129569 0  1.002505841533338 16.00033021494212 0  2.004876337776309 16.00039956838543 0  3.007349076661805 16.00051635393829 0  4.007419158467306 15.9995102668204 0  5.00735772913474 15.99850335042525 0  6.005395203062693 15.99892333397458 0  7.003540769073818 15.9993036046492 0  8.001754103630201 15.999658129541 0  9 16 0  -9 18 0  -8.002027889029934 17.99975845503426 0  -7.004106692853791 17.99951021244387 0  -6.006289968117734 17.99924869399295 0  -5.008636516551527 17.99896758234524 0  -4.008737198775678 17.99955998266407 0  -3.00863990724836 18.0001515315363 0  -2.005560724460842 18.0000767526806 0  -1.002630712847324 18.00003013618267 0  0.0002273852188099815 18.00001134793462 0  1.003087078639075 18.00001990705704 0  2.006021773756707 18.00005522577767 0  3.00910837510389 18.00011646455336 0  4.00921115083854 17.99948732382006 0  5.009113209089609 17.99885991979938 0  6.006645485807103 17.99917120407444 0  7.004342723188421 17.9994600389543 0  8.002145607918052 17.99973380048421 0  9 18 0  -9 20 0  -8.002195865949766 19.99986605094751 0  -7.004451145043472 19.99973029950086 0  -6.006827517413201 19.99959114110887 0  -5.009391195226927 19.99944735716879 0  -4.009506063415385 19.99955977160258 0  -3.009392317448061 19.99967121836796 0  -2.006033257245155 19.99964086584151 0  -1.002844132816073 19.99961923313425 0  0.0002623812948722106 19.99960674460808 0  1.003370454570004 19.99960319998014 0  2.006564232980101 19.99960779650602 0  3.009930986068665 19.99961907408291 0  4.010047294547982 19.99947604151481 0  5.009932552533575 19.99933415601315 0  6.007231232289167 19.99950897103506 0  7.004719192764456 19.99967681747483 0  8.002329562018859 19.99983969879661 0  8.999999999993339 19.9999999999934 0  -9 22 0  -8.002125024629642 21.99998083415639 0  -7.004308739411971 21.99996401193495 0  -6.006611681153873 21.99995210014263 0  -5.009098060381121 21.99994811702629 0  -4.009210516964075 21.99955499867558 0  -3.00909870362793 21.99916077531271 0  -2.005831007889461 21.99917031469048 0  -1.00272944093595 21.99917198888182 0  0.0002911545578144129 21.99916660214735 0  1.0033133645504 21.99915414808516 0  2.00641977605386 21.99913382497585 0  3.009695553277416 21.99910402075227 0  4.009807791229218 21.99947258456053 0  5.009692960438379 21.999841727603 0  6.007055340774045 21.99987459758258 0  7.004603310325391 21.99991342772102 0  8.002271945227225 21.99995586729797 0  9 22 0  -9 24 0  -8.001818216404532 24.00008624640002 0  -7.00368687481372 24.00017808565455 0  -6.005657849615867 24.00028134095262 0  -5.007785773086762 24.00040231338128 0  -4.007882702862462 23.99954578345 0  -3.007787296645711 23.99868821982684 0  -2.004969074474019 23.99873103260455 0  -1.002293087234418 23.99875280837914 0  0.0003135962771703053 23.99875454810206 0  1.002921959050647 23.99873637881816 0  2.005602996467512 23.99869755756244 0  3.008429679859908 23.99863646541844 0  4.008523771321505 23.99947479517602 0  5.008422612456063 24.00031337429045 0  6.006132766539393 24.00021634976596 0  7.004002190354941 24.0001355736734 0  8.001975478082056 24.00006523547923 0  9 24 0  -9 26 0  -8.001308257135825 26.00016931471268 0  -7.002653022436465 26.00034651422364 0  -6.00407182352548 26.0005397178915 0  -5.00560400499034 26.0007575329448 0  -4.005675384973732 25.99953263948772 0  -3.005607289533174 25.99830690886063 0  -2.003542864384653 25.9983754594937 0  -1.00158163140932 25.99841333494404 0  0.0003295236512949256 25.99842168837439 0  1.002242394403634 25.99840076488811 0  2.004208789386054 25.99834990208819 0  3.006281867895608 25.99826752796981 0  4.006347380388715 25.99948069266125 0  5.006270418535053 26.00069387238631 0  6.004568828845188 26.00049310088521 0  7.002983018894467 26.00031597308322 0  8.001472845388836 26.00015420485974 0  9 26 0  -9 28 0  -8.000650653233274 28.00022087459627 0  -7.001320094150657 28.00045094739164 0  -6.002027695164911 28.00069965545038 0  -5.002793692311648 28.00097692199554 0  -4.002832635468616 27.99951675617935 0  -3.002798983227765 27.99805609908517 0  -2.001708461037338 27.99814212343173 0  -1.000671935988037 27.99819148028076 0  0.0003387919930632344 27.99820545986685 0  1.001351233724349 27.99818442030656 0  2.002392911568044 27.99812778841377 0  3.00349206164353 27.9980340581834 0  4.003522341540404 27.99948892889375 0  5.003477003490286 28.00094372996995 0  6.002537373521013 28.00067530092684 0  7.001658542004916 28.00043496702402 0  8.00081
[...]
<PointData  Vectors="f_44-2"> 
<DataArray  type="Float64"  Name="f_44-2"  NumberOfComponents="3" format="ascii">0.0000000000000000e+00 0.0000000000000000e+00 0.0000000000000000e+00  0.0000000000000000e+00 0.0000000000000000e+00 0.0000000000000000e+00  0.0000000000000000e+00 0.0000000000000000e+00 0.0000000000000000e+00  0.0000000000000000e+00 0.0000000000000000e+00 0.0000000000000000e+00  0.0000000000000000e+00 0.0000000000000000e+00 0.0000000000000000e+00  0.0000000000000000e+00 0.0000000000000000e+00 0.0000000000000000e+00  0.0000000000000000e+00 0.0000000000000000e+00 0.0000000000000000e+00  0.0000000000000000e+00 0.0000000000000000e+00 0.0000000000000000e+00  0.0000000000000000e+00 0.0000000000000000e+00 0.0000000000000000e+00  0.0000000000000000e+00 0.0000000000000000e+00 0.0000000000000000e+00  0.0000000000000000e+00 0.0000000000000000e+00 0.0000000000000000e+00  0.0000000000000000e+00 0.0000000000000000e+00 0.0000000000000000e+00  0.0000000000000000e+00 0.0000000000000000e+00 0.0000000000000000e+00  0.0000000000000000e+00 0.0000000000000000e+00 0.0000000000000000e+00  0.0000000000000000e+00 0.0000000000000000e+00 0.0000000000000000e+00  0.0000000000000000e+00 0.0000000000000000e+00 0.0000000000000000e+00  0.0000000000000000e+00 0.0000000000000000e+00 0.0000000000000000e+00  0.0000000000000000e+00 0.0000000000000000e+00 0.0000000000000000e+00  0.0000000000000000e+00 0.0000000000000000e+00 0.0000000000000000e+00  0.0000000000000000e+00 0.0000000000000000e+00 0.0000000000000000e+00  2.1970371860810324e-05 2.5362242102702132e-05 0.0000000000000000e+00  4.6097140958460977e-05 4.8373157054008063e-05 0.0000000000000000e+00  7.6693450699862203e-05 6.7219763487036174e-05 0.0000000000000000e+00  1.2299843567097741e-04 8.1406311186437932e-05 0.0000000000000000e+00  8.1942488260310000e-05 5.8267603253378738e-05 0.0000000000000000e+00  3.8520705465353334e-05 4.0566086970350271e-05 0.0000000000000000e+00  1.4914687311502224e-05 2.5766176511798234e-05 0.0000000000000000e+00  5.8087109149927120e-06 1.4099079532864164e-05 0.0000000000000000e+00  5.8644475940849902e-06 8.6282093380390936e-06 0.0000000000000000e+00  7.1732520846238752e-06 1.0951896440575121e-05 0.0000000000000000e+00  2.3209683051465774e-06 2.0116521504525621e-05 0.0000000000000000e+00  -1.3594913297205365e-05 3.1400296845824462e-05 0.0000000000000000e+00  -4.1776355460666226e-05 4.3002163119150734e-05 0.0000000000000000e+00  -8.0272623780789303e-05 4.5649132311926358e-05 0.0000000000000000e+00  -4.6802360509775207e-05 4.3612379040109042e-05 0.0000000000000000e+00  -2.6893903402459663e-05 3.3574887751560618e-05 0.0000000000000000e+00  -1.2537892542381421e-05 1.8153635246033443e-05 0.0000000000000000e+00  0.0000000000000000e+00 0.0000000000000000e+00 0.0000000000000000e+00  0.0000000000000000e+00 0.0000000000000000e+00 0.0000000000000000e+00  3.5314078248717931e-05 6.0126460020477155e-05 0.0000000000000000e+00  6.6315919439033458e-05 1.1340099213696525e-04 0.0000000000000000e+00  9.0551479497072711e-05 1.5307842995589173e-04 0.0000000000000000e+00  1.0859324253833585e-04 1.7265449424926240e-04 0.0000000000000000e+00  5.4373586771585594e-05 1.6208885727564813e-04 0.0000000000000000e+00  1.5703687632365303e-05 1.1836815398817944e-04 0.0000000000000000e+00  1.2170958728809142e-07 6.2362450711920162e-05 0.0000000000000000e+00  4.5581084579174926e-06 1.7607624238406686e-05 0.0000000000000000e+00  2.0218748338886981e-05 -1.5483778020855232e-06 0.0000000000000000e+00  3.6818302655398219e-05 8.9892058702001850e-06 0.0000000000000000e+00  4.4518522782901133e-05 4.1264022660979054e-05 0.0000000000000000e+00  3.3735813662612047e-05 8.5030167547879492e-05 0.0000000000000000e+00  2.0412621817801569e-06 1.2719834165998895e-04 0.0000000000000000e+00  -4.2835127102842871e-05 1.3561152823912464e-04 0.0000000000000000e+00  -3.9356383023645529e-05 1.1922612856928486e-04 0.0000000000000000e+00  -3.1577255377706483e-05 8.8681986763502790e-05 0.0000000000000000e+00  -1.7802201748135881e-05 4.7233804628125033e-05 0.0000000000000000e+00  0.0000000000000000e+00 0.0000000000000000e+00 0.0000000000000000e+00  0.0000000000000000e+00 0.0000000000000000e+00 0.0000000000000000e+00  6.5902711314161917e-05 1.2228358793398627e-04 0.0000000000000000e+00  1.1359975549392303e-04 2.3280383353956968e-04 0.0000000000000000e+00  1.2918589631134560e-04 3.1933040111402041e-04 0.0000000000000000e+00  1.0874664808320790e-04 3.7023591706353357e-04 0.0000000000000000e+00  1.1361823985586814e-05 3.0663618107987998e-04 0.0000000000000000e+00  -3.5700514797968096e-05 1.7757978506948785e-04 0.0000000000000000e+00  -2.4510126222752669e-05 4.3356031138894716e-05 0.0000000000000000e+00  1.0571291332361583e-05 -3.0866205410206591e-05 0.0000000000000000e+00  4.5083338477066533e-05 -4.7270192755826694e-05 0.0000000000000000e+00  7.4373770231412749e-05 -2.6508766202776821e-05 0.0000000000000000e+00  9.4701161217378301e-05 3.2549838090689888e-05 0.0000000000000000e+00  9.9437629308771737e-05 1.3202901648493788e-04 0.0000000000000000e+00  7.5382744894455597e-05 2.3334001069018719e-04 0.0000000000000000e+00  -1.2273865074686728e-06 2.7803575143405055e-04 0.0000000000000000e+00  -4.9112276645608751e-05 2.5146387183700683e-04 0.0000000000000000e+00  -6.0241389125880682e-05 1.8739258560518813e-04 0.0000000000000000e+00  -3.9170412932273660e-05 9.9444318288960284e-05 0.0000000000000000e+00  0.0000000000000000e+00 0.0000000000000000e+00 0.0000000000000000e+00  0.0000000000000000e+00 0.0000000000000000e+00 0.0000000000000000e+00  1.6933998441335575e-04 2.3176030582237588e-04 0.0000000000000000e+00  2.8930417138256205e-04 4.4811201438405305e-04 0.0000000000000000e+00  3.1191303101467632e-04 6.2799977014781864e-04 0.0000000000000000e+00  1.9590102833839918e-04 7.3647285373394916e-04 0.0000000000000000e+00  1.4898771683985362e-05 4.5272502011499253e-04 0.0000000000000000e+00  4.7340312866905679e-05 1.2194741554704067e-04 0.0000000000000000e+00  1.1272598109761485e-04 -3.6832819864757826e-05 0.0000000000000000e+00  1.1436818798410920e-04 -5.2429988568651366e-05 0.0000000000000000e+00  6.9216039689128838e-05 -5.6374574260176323e-05 0.0000000000000000e+00  3.1973162408901845e-05 -7.1000212255375837e-05 0.0000000000000000e+00  3.5601825832538774e-05 -1.2975192763429817e-05 0.0000000000000000e+00  1.0019840844974982e-04 8.8132095570116209e-05 0.0000000000000000e+00  1.1595574778242952e-04 3.4016848854328847e-04 0.0000000000000000e+00  -5.1150742636493590e-05 6.2445363604883889e-04 0.0000000000000000e+00  -2.0584642277174346e-04 5.3361120455710392e-04 0.0000000000000000e+00  -2.1765521373032343e-04 3.8154420167046466e-04 0.0000000000000000e+00  -1.3289308553789150e-04 1.9758836153488434e-04 0.0000000000000000e+00  0.0000000000000000e+00 0.0000000000000000e+00 0.0000000000000000e+00  0.0000000000000000e+00 0.0000000000000000e+00 0.0000000000000000e+00  4.6995796154897712e-04 4.0261085426464684e-04 0.0000000000000000e+00  8.5381276112239603e-04 8.0883273530046938e-04 0.0000000000000000e+00  1.0488045947757399e-03 1.2216693225441484e-03 0.0000000000000000e+00  9.1130565709978610e-04 1.6425064237004586e-03 0.0000000000000000e+00  6.2813616262841372e-04 7.3496769014310933e-04 0.0000000000000000e+00  6.7355246479900506e-04 -4.2960129096714982e-05 0.0000000000000000e+00  5.5132057485238379e-04 9.8256351374397937e-05 0.0000000000000000e+00  2.9566645028614240e-04 1.4361949010090498e-04 0.0000000000000000e+00  1.0917619408144314e-04 1.5450448569424903e-04 0.0000000000000000e+00  -7.2975429441912435e-05 1.5267288140278858e-04 0.0000000000000000e+00  -3.0787889136699528e-04 1.5347619585780000e-04 0.0000000000000000e+00  -5.2738408488574610e-04 -1.0085410170761734e-04 0.0000000000000000e+00  -5.1728727574909354e-04 5.5493867465571871e-04 0.0000000000000000e+00  -8.0495372648230873e-04 1.4195650597987018e-03 0.0000000000000000e+00  -9.3349796973777525e-04 1.0601745979951808e-03 0.0000000000000000e+00  -7.6095726219857030e-04 7.0298150694716717e-04 0.0000000000000000e+00  -4.1888305573125641e-04 3.5009087970714551e-04 0.0000000000000000e+00  0.0000000000000000e+00 0.0000000000000000e+00 0.0000000000000000e+00  0.0000000000000000e+00 0.0000000000000000e+00 0.0000000000000000e+00  1.1135072569191274e-03 5.5846642637032953e-04 0.0000000000000000e+00  2.1713665869907517e-03 1.1421688128235115e-03 0.0000000000000000e+00  3.1111368312733171e-03 1.7814081592040490e-03 0.0000000000000000e+00  3.8557214999715645e-03 2.5186159670573926e-03 0.0000000000000000e+00  3.7191506714565493e-03 8.7607937979657156e-04 0.0000000000000000e+00  3.8555999574485071e-03 -7.5070665676609362e-04 0.0000000000000000e+00  2.7521011072184198e-03 -5.3150145180290507e-04 0.0000000000000000e+00  1.5226260119646808e-03 -4.0281283572498456e-04 0.0000000000000000e+00  2.4123403093374938e-04 -3.5815071596638032e-04 0.0000000000000000e+00  -1.0639538482198029e-03 -3.9877575835022564e-04 0.0000000000000000e+00  -2.3735548608211344e-03 -5.4213031094320547e-04 0.0000000000000000e+00  -3.6458145597259442e-03 -8.3382113838558489e-04 0.0000000000000000e+00  -3.5342022207508050e-03 7.0033277118870016e-04 0.0000000000000000e+00  -3.5985624670629812e-03 2.2459994244456130e-03 0.0000000000000000e+00  -2.8624738884516516e-03 1.5768683893796435e-03 0.0000000000000000e+00  -1.9808873366881086e-03 1.0065408452770946e-03 0.0000000000000000e+00  -1.0111842642953482e-03 4.9097920107678847e-04 0.0000000000000000e+00  0.0000000000000000e+00 0.0000000000000000e+00 0.0000000000000000e+00  0.0000000000000000e+00 0.0000000000000000e+00 0.0000000000000000e+00  1.9766043878893477e-03 6.1275965753798472e-04 0.0000000000000000e+00  3.9564227651314532e-03 1.2522889187111693e-03 0.0000000000000000e+00  5.9459329918989372e-03 1.9477174263358911e-03 0.0000000000000000e+00  7.9590105784398089e-03 2.7327763305021345e-03 0.0000000000000000e+00  7.9880950652151273e-03 8.2486662848678957e-04 0.0000000000000000e+00  8.0053741404979006e-03 -1.1090081628826883e-03 0.0000000000000000e+00  5.4625155337154835e-03 -8.0035469713866448e-04 0.0000000000000000e+00  2.9598537594450118e-03 -6.1414949808295740e-04 0.0000000000000000e+00  4.6810307470438275e-04 -5.3010972374214257e-04 0.0000000000000000e+00  -2.0411228018697215e-03 -5.4036180388738054e-04 0.0000000000000000e+00  -4.5962368337667562e-03 -6.4590431931498189e-04 0.0000000000000000e+00  -7.2240962519707769e-03 -8.5309664911389351e-04 0.0000000000000000e+00  -7.2599914531714400e-03 7.6999789565422117e-04 0.0000000000000000e+00  -7.2482555759146930e-03 2.3799665491703007e-03 0.0000000000000000e+00  -5.3668612751026799e-03 1.6962029195587312e-03 0.0000000000000000e+00  -3.5494558784869394e-03 1.0897360305941641e-03 0.0000000000000000e+00  -1.7670212648065496e-03 5.3284481406365696e-04 0.0000000000000000e+00  0.0000000000000000e+00 0.0000000000000000e+00 0.0000000000000000e+00  0.0000000000000000e+00 0.0000000000000000e+00 0.0000000000000000e+00  2.8227070698167820e-03 5.5956817120695441e-04 0.0000000000000000e+00  5.6959207478180160e-03 1.1379548500757466e-03 0.0000000000000000e+00  8.6755642163408603e-03 1.7542226585136173e-03 0.0000000000000000e+00  1.1826672123108008e-02 2.4274784503782953e-03 0.0000000000000000e+00  1.1941071737996280e-02 7.9974056768856874e-04 0.0000000000000000e+00  1.1845174346340505e-02 -8.2069099641445345e-04 0.0000000000000000e+00  8.0226817423860765e-03 -5.8262487817967287e-04 0.0000000000000000e+00  4.3582588483182172e-03 -4.1938528047538688e-04 0.0000000000000000e+00  7.6510621480701862e-04 -3.2718279062180812e-04 0.0000000000000000e+00  -2.8391466458916534e-03 -3.0304575690225479e-04 0.0000000000000000e+00  -6.5373522276288339e-03 -3.4525952540351805e-04 0.0000000000000000e+00  -1.0417925942759528e-02 -4.5294188040385805e-04 0.0000000000000000e+00  -1.0537533847481035e-02 8.1939973313017187e-04 0.0000000000000000e+00  -1.0426137103207977e-02 2.0910706618053956e-03 0.0000000000000000e+00  -7.6043603038252333e-03 1.5049852191785333e-03 0.0000000000000000e+00  -4.9715505327080365e-03 9.7366817562500999e-04 0.0000000000000000e+00  -2.4573069111961002e-03 4.7802740450692363e-04 0.0000000000000000e+00  0.0000000000000000e+00 0.0000000000000000e+00 0.0000000000000000e+00  0.0000000000000000e+00 0.0000000000000000e+00 0.0000000000000000e+00  3.4616245560412017e-03 4.3091027671033944e-04 0.0000000000000000e+00  7.0026770577274302e-03 8.7175796706688775e-04 0.0000000000000000e+00  1.0706951428221548e-02 1.3321305913646664e-03 0.0000000000000000e+00  1.4666391630504457e-02 1.8208897408547085e-03 0.0000000000000000e+00  1.4830382527006169e-02 7.9192253683132974e-04 0.0000000000000000e+00  1.4683071944256561e-02 -2.3750002782524647e-04 0.0000000000000000e+00  9.9622627738477996e-03 -7.0323221630174795e-05 0.0000000000000000e+00  5.4779381469282351e-03 5.6943704335409258e-05 0.0000000000000000e+00  1.1071198998238389e-03 1.4546284560096976e-04 0.0000000000000000e+00  -3.2663718341733017e-03 1.9721169137313448e-04 0.0000000000000000e+00  -7.7587851541769557e-03 2.1492532147671345e-04 0.0000000000000000e+00  -1.2491981225811018e-02 2.0232627577993826e-04 0.0000000000000000e+00  -1.2651527144781127e-02 8.5314805623105830e-04 0.0000000000000000e+00  -1.2494546771751571e-02 1.4995660222926635e-03 0.0000000000000000e+00  -9.0737870343200969e-03 1.0939002035678551e-03 0.0000000000000000e+00  -5.9117689797461978e-03 7.1440162258051474e-04 0.0000000000000000e+00  -2.9155405084522867e-03 3.5259425977080314e-04 0.0000000000000000e+00  0.0000000000000000e+00 0.0000000000000000e+00 0.0000000000000000e+00  0.0000000000000000e+00 0.0000000000000000e+00 0.0000000000000000e+00  3.7788410122082581e-03 2.6259006000279374e-04 0.0000000000000000e+00  7.6487146084898159e-03 5.2739822236537589e-04 0.0000000000000000e+00  1.1704032217281437e-02 7.9620652825971596e-04 0.0000000000000000e+00  1.6045886735090428e-02 1.0699791028613566e-03 0.0000000000000000e+00  1.6227919741848725e-02 7.8710583630304729e-04 0.0000000000000000e+00  1.6058149659780082e-02 5.0410006606392175e-04 0.0000000000000000e+00  1.0971236251448290e-02 6.0011418454714548e-04 0.0000000000000000e+00  6.1494267785660245e-03 6.8660700665596169e-04 0.0000000000000000e+00  1.4603687720456061e-03 7.6344920868095514e-04 0.0000000000000000e+00  -3.2237803065546132e-03 8.3195507708236447e-04 0.0000000000000000e+00  -8.0303249498444775e-03 8.9483547225983992e-04 0.0000000000000000e+00  -1.3090983477808023e-02 9.5629030889943223e-04 0.0000000000000000e+00  -1.3260189261730875e-02 8.6731390242445144e-04 0.0000000000000000e+00  -1.3088550794617742e-02 7.7529600410591046e-04 0.0000000000000000e+00  -9.4959790167593750e-03 5.7798632247537025e-04 0.0000000000000000e+00  -6.1812952529129890e-03 3.8309152577150463e-04 0.0000000000000000e+00  -3.0464846272786504e-03 1.9085167851534484e-04 0.0000000000000000e+00  -2.4860126229922724e-09 0.0000000000000000e+00 0.0000000000000000e+00  0.0000000000000000e+00 0.0000000000000000e+00 0.0000000000000000e+00  3.7283163942063288e-03 8.5507192899918295e-05 0.0000000000000000e+00  7.5453316053749990e-03 1.6711448115860992e-04 0.0000000000000000e+00  1.1542232036202398e-02 2.4050313870449303e-04 0.0000000000000000e+00  1.5815283590950961e-02 3.0054993551227642e-04 0.0000000000000000e+00  1.5991322592322978e-02 7.8828839383478851e-04 0.0000000000000000e+00  1.5827582507967508e-02 1.2763465626523002e-03 0.0000000000000000e+00  1.0934177485808794e-02 1.3081539462862853e-03 0.0000000000000000e+00  6.2979544356322201e-03 1.3543345039740682e-03 0.0000000000000000e+00  1.7942015107404539e-03 1.4142452019279895e-03 0.0000000000000000e+00  -2.6980072155485370e-03 1.4887351344422511e-03 0.0000000000000000e+00  -7.2992552535286566e-03 1.5801291379694293e-03 0.0000000000000000e+00  -1.2133305825995127e-02 1.6922528103019887e-03 0.0000000000000000e+00  -1.2286580138802223e-02 8.7020737438166153e-04 0.0000000000000000e+00  -1.2123415176316892e-02 4.6363129599695589e-05 0.0000000000000000e+00  -8.7953505418129282e-03 5.2339501974844844e-05 0.0000000000000000e+00  -5.7243528598723576e-03 4.2820571045590493e-05 0.0000000000000000e+00  -2.8208725080838648e-03 2.3704462471130360e-05 0.0000000000000000e+00  0.0000000000000000e+00 0.0000000000000000e+00 0.0000000000000000e+00  0.0000000000000000e+00 0.0000000000000000e+00 0.0000000000000000e+00  3.3194087180390213e-03 -7.5932929083577438e-05 0.0000000000000000e+00  6.7147853375756055e-03 -1.6021686018994851e-04 0.0000000000000000e+00  1.0263173079162259e-02 -2.6169295574593189e-04 0.0000000000000000e+00  1.4046603585910145e-02 -3.8972096842737342e-04 0.0000000000000000e+00  1.4199347276656740e-02 7.9620654414211053e-04 0.0000000000000000e+00  1.4062372324879087e-02 1.9825183063556452e-03 0.0000000000000000e+00  9.8820778439485096e-03 1.9593241125225062e-03 0.0000000000000000e+00  5.9229950018175274e-03 1.9677375516892106e-03 0.0000000000000000e+00  2.0816365107993490e-03 2.0073374914333629e-03 0.0000000000000000e+00  -1.7428996313556375e-03 2.0785702910267223e-03 0.0000000000000000e+00  -5.6511618226173337e-03 2.1832847047390689e-03 0.0000000000000000e+00  -9.7457707480239041e-03 2.3247052423829235e-03 0.0000000000000000e+00  -9.8646690592483904e-03 8.6699082355887636e-04 0.0000000000000000e+00  -9.7272253515169396e-03 -5.9185379344932343e-04 0.0000000000000000e+00  -7.0553019720063347e-03 -4.1123559995783046e-04 0.0000000000000000e+00  -4.5907526604404662e-03 -2.5899800563716660e-04 0.0000000000000000e+00  -2.2618608531515664e-03 -1.2502712281058017e-04 0.0000000000000000e+00  0.0000000000000000e+00 0.0000000000000000e+00 0.0000000000000000e+00  0.0000000000000000e+00 0.0000000000000000e+00 0.0000000000000000e+00  2.6034508285907336e-03 -2.0399737472669141e-04 0.0000000000000000e+00  5.2623889989408985e-03 -4.1930569566485263e-04 0.0000000000000000e+00  8.0335854928411509e-03 -6.5755920274581303e-04 0.0000000000000000e+00  1.0976088440930173e-02 -9.3095610097537556e-04 0.0000000000000000e+00  1.1093115683427354e-02 8.1082335007459335e-04 0.0000000000000000e+00  1.0997249707655126e-02 2.5527449836951258e-03 0.0000000000000000e+00  7.9571549839208399e-03 2.4831418512707162e-03 0.0000000000000000e+00  5.0830515778922921e-03 2.4576413391945665e-03 0.0000000000000000e+00  2.3012637356266998e-03 2.4751746322968339e-03 0.0000000000000000e+00  -4.5987366736405255e-04 2.5358082345277957e-03 0.0000000000000000e+00  -3.2718737521150558e-03 2.6410284744494729e-03 0.0000000000000000e+00  -6.2067514585177966e-03 2.7934267603412066e-03 0.0000000000000000e+00  -6.2793526497670477e-03 8.6147261535078688e-04 0.0000000000000000e+00  -6.1796026689766772e-03 -1.0713258048758013e-03 0.0000000000000000e+00  -4.4746208692726776e-03 -7.6131713337257336e-04 0.0000000000000000e+00  -2.9077656782713563e-03 -4.8779981334688309e-04 0.0000000000000000e+00  -1.4314999671711697e-03 -2.3804039887334363e-04 0.0000000000000000e+00  0.0000000000000000e+00 0.0000000000000000e+00 0.0000000000000000e+00  0.0000000000000000e+00 0.0000000000000000e+00 0.0000000000000000e+00  1.6610575233542780e-03 -2.8686025063655773e-04 0.0000000000000000e+00  3.3526747895904381e-03 -5.8658980532225527e-04 0.0000000000000000e+00  5.1062603950814125e-03 -9.1233743852313582e-04 0.0000000000000000e+00  6.9539958547000765e-03 -1.2779029216004247e-03 0.0000000000000000e+00  7.0269058470268037e-03 8.3057241247335822e-04 0.0000000000000000e+00  6.9806059680056036e-03 2.9385929535301826e-03 0.0000000000000000e+00  5.3810604234810992e-03 2.8319951256613172e-03 0.0000000000000000e+00  3.8793647265149482e-03 2.7768094738982053e-03 0.0000000000000000e+00  2.4376691357137522e-03 2.7715818226498805e-03 0.0000000000000000e+00  1.0189762362205587e-03 2.8161208369275963e-03 0.0000000000000000e+00  -4.1330023762727557e-04 2.9113952854987737e-03 0.0000000000000000e+00  -1.8961187904844806e-03 3.0595078786026602e-03 0.0000000000000000e+00  -1.9163206992971931e-03 8.5530317841430521e-04 0.0000000000000000e+00  -1.8621001053228717e-03 -1.3498763633750480e-03 0.0000000000000000e+00  -1.3297992356106191e-03 -9.6557366534997309e-04 0.0000000000000000