<?xml version="1.0"?>
<VTKFile type="UnstructuredGrid"  version="0.1"  >
<UnstructuredGrid>
<Piece  NumberOfPoints="589" NumberOfCells="1080">
<Points>
<DataArray  type="Float64"  NumberOfComponents="3"  format="ascii">-9 0 0  -8 0 0  -7 0 0  -6 0 0  -5 0 0  -4 0 0  -3 0 0  -2 0 0  -1 0 0  0 0 0  1 0 0  2 0 0  3 0 0  4 0 0  5 0 0  6 0 0  7 0 0  8 0 0  9 0 0  -9 2 0  -8.000007438860761 1.999988387097314 0  -7.000015616124822 1.999978243331793 0  -6.000026300864225 1.999970766312537 0  -5.000043563579312 1.9999664956149 0  -4.000025361135289 1.999974825909139 0  -3.000006672560938 1.999982938241195 0  -1.99999765245621 1.999990640596938 0  -0.9999963525115544 1.999996726534996 0  1.362866481133478e-07 1.99999936896912 0  0.9999963245238613 1.999997436750957 0  1.99999661069371 1.999991366029457 0  3.000003962701915 1.999983915287121 0  4.000019336061136 1.999975890805377 0  5.000041729547029 1.999972424423793 0  6.000025320889765 1.999973638635166 0  7.000015127017396 1.999979690852503 0  8.000007242837825 1.999989012717611 0  9 2 0  -9.000000000004983 4 0  -8.000011923945729 3.999970898424231 0  -7.000021202406903 3.999945820253886 0  -6.000026289749932 3.999928707653813 0  -5.000027514050077 3.99992332067776 0  -4.000000710038076 3.999927160565804 0  -2.999982797827024 3.999950299552473 0  -1.999978313746687 3.999980491441292 0  -0.9999854840727603 4.000004789517468 0  1.017671804558196e-06 4.00001450584306 0  0.9999872710218132 4.000006606719771 0  1.999979273965951 3.999985530062485 0  2.999983046101167 3.999956994938781 0  4.000000444319916 3.999928163459404 0  5.000027093143322 3.999918074538644 0  6.000025782452917 3.999927925814173 0  7.000021015027513 3.999946304016686 0  8.000011919946635 3.999971364697445 0  9 4 0  -9 6 0  -8.000026989979329 5.999937320032028 0  -7.000043553085548 5.999881538521077 0  -6.00004173075822 5.999839750027267 0  -5.000019231850474 5.999818766390208 0  -3.999966499602839 5.999853086054103 0  -2.999942588890153 5.999925094046269 0  -1.999952210328819 6.000000649697525 0  -0.9999760707386921 6.000042695480811 0  -2.933556073422084e-07 6.000051041833309 0  0.9999778393574342 6.000037167690473 0  1.999961112720962 5.999998923379845 0  2.999954809223959 5.999934297113739 0  3.999967408021625 5.999867147914499 0  5.000012928230555 5.999833504287484 0  6.000040070900904 5.999848108753912 0  7.000044212526431 5.999886191266522 0  8.000027894865701 5.9999394219944 0  9 6 0  -9 8 0  -8.000083751669832 7.999876166505242 0  -7.000139438509118 7.999761304307128 0  -6.000139873796221 7.999667592429193 0  -5.000061779404629 7.999615095656218 0  -3.999959525521596 7.999774278829952 0  -2.999978165073278 7.99996146179194 0  -2.000016416606365 8.000052865421946 0  -1.000019716537157 8.000063509430394 0  3.004723860241082e-06 8.00006665913642 0  1.000019819004855 8.000075945418088 0  2.000012363635616 8.000037151107877 0  2.999967155996385 7.999971210935743 0  3.999951642824893 7.999808059876742 0  5.000053062051305 7.999623921552585 0  6.000146349303743 7.999674407074144 0  7.000149230678375 7.999765506807638 0  8.000090164402742 7.999878106197095 0  9 8 0  -9 10 0  -8.000252680883028 9.999779201763708 0  -7.000456231532751 9.999556582865386 0  -6.000552040783396 9.999330763732232 0  -5.000458453770833 9.999101418127571 0  -4.000296380676698 9.999615453797464 0  -3.000322521561995 10.00005754032177 0  -2.000256684322024 9.999982027942979 0  -1.000114328131612 9.999957786261916 0  -9.203844588602687e-06 9.999951848390108 0  1.000095310493623 9.999952220457555 0  2.000234901869003 9.999949104149403 0  3.000357157031771 10.00011007446551 0  4.000340935410632 9.999684021714387 0  5.000527799250243 9.99912172919918 0  6.000614049273261 9.999338404809464 0  7.000501911617225 9.999558911130764 0  8.000276742660111 9.999779668170946 0  9 10 0  -9 12 0  -8.000617705572857 11.99968967763831 0  -7.001203294744514 11.9993649290085 0  -6.001720448068901 11.99900850615895 0  -5.002124047678876 11.99859637185413 0  -4.002041154862721 11.99953344888528 0  -3.002115559625367 12.00046103827733 0  -2.001442371322474 12.00035036983999 0  -1.00069490579128 12.00029131920165 0  8.023051390958906e-05 12.00028140175335 0  1.000862056581776 12.00032270254494 0  2.001632574926993 12.00042676378715 0  3.002356059483544 12.00062232128326 0  4.002274017990632 11.99959771319689 0  5.002328793000988 11.99856446518428 0  6.00187429997682 11.99898744147266 0  7.001306216913085 11.99935153462019 0  8.000669309140747 11.99968306858218 0  9 12 0  -9 14 0  -8.001110318194753 13.99965803714932 0  -7.002222695154236 13.99930028127252 0  -6.003340663046798 13.99890954638833 0  -5.004471509982969 13.99846591233793 0  -4.004483309703573 13.99956047484626 0  -3.004489543288063 14.00066877496461 0  -2.002926826978416 14.00051257019192 0  -1.001386875239436 14.0004286116593 0  0.0001431531533235857 14.00040635423221 0  1.001675384115641 14.00044248110527 0  2.003220913450386 14.00053892668027 0  3.00478821936043 14.00070088747634 0  4.004799143310374 13.99955745618342 0  5.004807285767419 13.99842089378308 0  6.003586712131327 13.99887273120766 0  7.002384532005254 13.9992748264266 0  8.001190676371618 13.99964511593457 0  9 14 0  -9 16 0  -8.001593499191994 15.99968968763743 0  -7.003217758853494 15.99936780170437 0  -6.004906183091716 15.99902256316308 0  -5.006697553449245 15.99864196406624 0  -4.006761784514945 15.99957377024147 0  -3.006700739699931 16.00050053001137 0  -2.004323346160462 16.00038676007632 0  -1.002040498207151 16.00031988694193 0  0.0001973601282202596 16.00029848341019 0  1.002437037088584 16.00032169049658 0  2.004725309358751 16.00038973584457 0  3.007111904249877 16.00050369641213 0  4.00717942255359 15.99952768539861 0  5.007120394298775 15.99855083883301 0  6.005221822097915 15.99895748686446 0  7.003427286080661 15.99932568874402 0  8.001697973424452 15.99966896866119 0  9 16 0  -9 18 0  -8.001952375339178 17.99976766401612 0  -7.003953901200855 17.99952885846571 0  -6.006056274674351 17.99927722654857 0  -5.008316253671902 17.99900665954503 0  -4.008413308089531 17.99957648264552 0  -3.008319298424119 18.00014545215875 0  -2.005345698431038 18.00007417003086 0  -1.002516024305936 18.00003012294942 0  0.0002442598085484645 18.00001300112684 0  1.003006079698126 18.00002236151309 0  2.005840261613418 18.00005766687946 0  3.008821005917057 18.00011814608192 0  4.008920244887726 17.99950547741963 0  5.008825788841747 17.99889445491365 0  6.006436512298333 17.99919634947364 0  7.004206456621556 17.99947643794086 0  8.002078372142888 17.99974188953287 0  9 18 0  -9 20 0  -8.002113480155938 19.99987150005052 0  -7.004284332948818 19.99974125357705 0  -6.006572121476506 19.99960770312331 0  -5.009040789238012 19.99946966077454 0  -4.009151593544758 19.99957614613769 0  -3.009041669633132 19.99968166975139 0  -2.005796902987872 19.9996532394697 0  -1.002716139421679 19.99963327900627 0  0.0002849597361011591 19.99962220863754 0  1.003287688308709 19.99961985263615 0  2.006373321818882 19.99962546054221 0  3.009626157424393 19.9996376543269 0  4.009738629749158 19.99949449644286 0  5.009627773749616 19.99935242392703 0  6.007009907426751 19.99952253117458 0  7.00457502601087 19.99968578167693 0  8.00225847902767 19.99984415639348 0  8.999999999984137 19.99999999999385 0  -9 22 0  -8.002044008164653 21.99998230199885 0  -7.004144705457564 21.99996686336755 0  -6.006360568569717 21.99995615790721 0  -5.008753631322564 21.99995309337272 0  -4.008862135049334 21.99957139172034 0  -3.008754040249263 21.99918860176513 0  -2.005596734296964 21.99919863258156 0  -1.002599771465844 21.99920109689065 0  0.0003191592834086664 21.99919678194402 0  1.00323988602815 21.9991856961668 0  2.006242243351659 21.99916708388507 0  3.009408565508693 21.99913941079297 0  4.00951725710188 21.99949108425874 0  5.009406180245866 21.99984330268728 0  6.006847113704292 21.99987612675804 0  7.004467702778039 21.9999146039272 0  8.002205093643893 21.9999565006082 0  9 22 0  -9 24 0  -8.001746653283824 24.00008407055295 0  -7.003542033070833 24.00017354458664 0  -6.005436253334409 24.00027404766888 0  -5.007482102540413 24.00039166661829 0  -4.007575597853725 23.99956236057402 0  -3.007483323349678 23.99873203936793 0  -2.004759715474849 23.99877411330264 0  -1.002173355998644 23.99879586449045 0  0.0003462955131688617 23.99879827061865 0  1.002867896762014 23.99878146626134 0  2.005460123565799 23.99874474646026 0  3.0081935732481 23.9986865608492 0  4.008284849924839 23.99949319660657 0  5.00818690151164 24.00030006286428 0  6.005961629918634 24.00020707815191 0  7.003890749212746 24.0001297230031 0  8.001920544573299 24.00006240758999 0  9 24 0  -9 26 0  -8.00125309924571 26.00016425169713 0  -7.002541453832622 26.00033612795644 0  -6.003901306011473 26.00052348044776 0  -5.005370663981536 26.00073463308215 0  -4.005439429141362 25.99954956774216 0  -3.005373534399531 25.99836367807568 0  -2.003378073186241 25.9984304747448 0  -1.00148208760962 25.99846760307992 0  0.0003658234564099126 25.99847618800446 0  1.002215785780783 25.99845647511746 0  2.00411794578081 25.99840783188426 0  3.006123768425406 25.99832874478389 0  4.006187497129392 25.99949894024742 0  5.006112904530854 26.00066913902531 0  6.004454555645231 26.00047550353045 0  7.002908651895062 26.00030468720995 0  8.001436200979187 26.00014869413522 0  9 26 0  -9 28 0  -8.000617013930187 28.00021396408676 0  -7.001252138936068 28.00043682761233 0  -6.001924050236163 28.00067772177801 0  -5.00265226434802 28.00094624918224 0  -4.002689620015558 27.99953416623834 0  -3.002657028588755 27.99812159064152 0  -2.001602816267121 27.99820507397343 0  -1.000600462999292 27.99825307486326 0  0.0003773372771990319 27.9982668491731 0  1.001357226899505 27.99824674862334 0  2.002365866193417 27.99819222162151 0  3.003430615603917 27.99810181162607 0  4.003460307476969 27.99950700808154 0  5.00341629474143 28.00091212091564 0  6.002493570132313 28.00065267317607 0  7.001630152377827 28.0004203883
[...]
<PointData  Vectors="f_44-2"> 
<DataArray  type="Float64"  Name="f_44-2"  NumberOfComponents="3" format="ascii">0.0000000000000000e+00 0.0000000000000000e+00 0.0000000000000000e+00  0.0000000000000000e+00 0.0000000000000000e+00 0.0000000000000000e+00  0.0000000000000000e+00 0.0000000000000000e+00 0.0000000000000000e+00  0.0000000000000000e+00 0.0000000000000000e+00 0.0000000000000000e+00  0.0000000000000000e+00 0.0000000000000000e+00 0.0000000000000000e+00  0.0000000000000000e+00 0.0000000000000000e+00 0.0000000000000000e+00  0.0000000000000000e+00 0.0000000000000000e+00 0.0000000000000000e+00  0.0000000000000000e+00 0.0000000000000000e+00 0.0000000000000000e+00  0.0000000000000000e+00 0.0000000000000000e+00 0.0000000000000000e+00  0.0000000000000000e+00 0.0000000000000000e+00 0.0000000000000000e+00  0.0000000000000000e+00 0.0000000000000000e+00 0.0000000000000000e+00  0.0000000000000000e+00 0.0000000000000000e+00 0.0000000000000000e+00  0.0000000000000000e+00 0.0000000000000000e+00 0.0000000000000000e+00  0.0000000000000000e+00 0.0000000000000000e+00 0.0000000000000000e+00  0.0000000000000000e+00 0.0000000000000000e+00 0.0000000000000000e+00  0.0000000000000000e+00 0.0000000000000000e+00 0.0000000000000000e+00  0.0000000000000000e+00 0.0000000000000000e+00 0.0000000000000000e+00  0.0000000000000000e+00 0.0000000000000000e+00 0.0000000000000000e+00  0.0000000000000000e+00 0.0000000000000000e+00 0.0000000000000000e+00  0.0000000000000000e+00 0.0000000000000000e+00 0.0000000000000000e+00  3.0617848279788333e-05 4.0543425923098699e-05 0.0000000000000000e+00  6.4036139958191326e-05 7.6549734355613172e-05 0.0000000000000000e+00  1.0655942541115740e-04 1.0439661296333149e-04 0.0000000000000000e+00  1.7237222114621222e-04 1.2267383373640881e-04 0.0000000000000000e+00  1.0786050608792664e-04 8.9973228654711634e-05 0.0000000000000000e+00  4.1053581006362733e-05 6.1530655378573231e-05 0.0000000000000000e+00  7.1270783791649854e-06 3.5920281616877945e-05 0.0000000000000000e+00  -1.4436227435970549e-06 1.5638265230625492e-05 0.0000000000000000e+00  5.9661539017955978e-06 6.3329919653126692e-06 0.0000000000000000e+00  1.5134981288227468e-05 1.1242040529281222e-05 0.0000000000000000e+00  1.2506466430229132e-05 2.8729232624533377e-05 0.0000000000000000e+00  -1.0841837536993035e-05 4.9990140603345340e-05 0.0000000000000000e+00  -5.7149672421963289e-05 7.1728537825136696e-05 0.0000000000000000e+00  -1.2248376335782102e-04 7.7055262916751196e-05 0.0000000000000000e+00  -7.1919549483727088e-05 7.5139730866019140e-05 0.0000000000000000e+00  -4.1908885894997076e-05 5.8467402912514145e-05 0.0000000000000000e+00  -1.9790633681409898e-05 3.1785261956859363e-05 0.0000000000000000e+00  0.0000000000000000e+00 0.0000000000000000e+00 0.0000000000000000e+00  0.0000000000000000e+00 0.0000000000000000e+00 0.0000000000000000e+00  5.0032519505447502e-05 9.9230074092808790e-05 0.0000000000000000e+00  9.1652354692257820e-05 1.8573323646882349e-04 0.0000000000000000e+00  1.1996008384299174e-04 2.4706974274219543e-04 0.0000000000000000e+00  1.3589873923812052e-04 2.7138053380841695e-04 0.0000000000000000e+00  4.5736163770179645e-05 2.5548361840368891e-04 0.0000000000000000e+00  -1.5864017983363722e-05 1.7893395159355126e-04 0.0000000000000000e+00  -3.4859615452155988e-05 8.0139420515973700e-05 0.0000000000000000e+00  -1.6916144741944757e-05 7.1740918014235993e-07 0.0000000000000000e+00  2.1326846400321987e-05 -3.2475506875304224e-05 0.0000000000000000e+00  6.0908645748340386e-05 -1.1092211684892495e-05 0.0000000000000000e+00  8.3522746950918155e-05 5.0372617128852440e-05 0.0000000000000000e+00  7.1062072396485567e-05 1.3342612986820318e-04 0.0000000000000000e+00  1.8336887361340401e-05 2.1478799144300211e-04 0.0000000000000000e+00  -6.1239771380779647e-05 2.3491753993009628e-04 0.0000000000000000e+00  -6.1623801948514407e-05 2.0930369861969420e-04 0.0000000000000000e+00  -5.2247002185044114e-05 1.5696905574122849e-04 0.0000000000000000e+00  -3.0268926397748900e-05 8.3977765489928781e-05 0.0000000000000000e+00  0.0000000000000000e+00 0.0000000000000000e+00 0.0000000000000000e+00  0.0000000000000000e+00 0.0000000000000000e+00 0.0000000000000000e+00  1.0309128834423273e-04 2.0879940368958389e-04 0.0000000000000000e+00  1.7251657328484055e-04 3.9556044115172289e-04 0.0000000000000000e+00  1.8283763423876948e-04 5.3782401864132081e-04 0.0000000000000000e+00  1.2685455171242908e-04 6.1412548771723518e-04 0.0000000000000000e+00  -4.3853152341342478e-05 5.0060657326751756e-04 0.0000000000000000e+00  -1.2248264993468616e-04 2.6769454274518497e-04 0.0000000000000000e+00  -9.3993277827001049e-05 2.4685990037929000e-05 0.0000000000000000e+00  -2.1228120528653827e-05 -1.0965949274507573e-04 0.0000000000000000e+00  5.1140587577026519e-05 -1.3785866201010687e-04 0.0000000000000000e+00  1.1476405145058376e-04 -9.7839525223285270e-05 0.0000000000000000e+00  1.6218491512655876e-04 1.4709421334669318e-05 0.0000000000000000e+00  1.7918064100385389e-04 2.0498175063521254e-04 0.0000000000000000e+00  1.4039492588658988e-04 4.0032413918563711e-04 0.0000000000000000e+00  2.0249103433424836e-06 4.9135689267585834e-04 0.0000000000000000e+00  -9.0371039838753653e-05 4.5033069000209618e-04 0.0000000000000000e+00  -1.1298413281309974e-04 3.3807425503269765e-04 0.0000000000000000e+00  -7.3901605646716964e-05 1.8009430079755619e-04 0.0000000000000000e+00  0.0000000000000000e+00 0.0000000000000000e+00 0.0000000000000000e+00  0.0000000000000000e+00 0.0000000000000000e+00 0.0000000000000000e+00  2.9028741110773219e-04 4.0608982954151636e-04 0.0000000000000000e+00  4.8975507500644856e-04 7.8325562969359355e-04 0.0000000000000000e+00  5.1090929906764276e-04 1.0923075301323909e-03 0.0000000000000000e+00  2.7876835664746323e-04 1.2684470331695203e-03 0.0000000000000000e+00  -4.8487745792232629e-05 7.5300510507125796e-04 0.0000000000000000e+00  1.5833923367118903e-05 1.5052692171486296e-04 0.0000000000000000e+00  1.4087508280107963e-04 -1.3907982554932957e-04 0.0000000000000000e+00  1.5037017648545295e-04 -1.6744421861783406e-04 0.0000000000000000e+00  7.4469992737260623e-05 -1.7494554790712855e-04 0.0000000000000000e+00  1.4946386472232589e-05 -2.0373526138223354e-04 0.0000000000000000e+00  3.1171817368805015e-05 -9.1788965782837963e-05 0.0000000000000000e+00  1.6359823506496585e-04 1.0026860836732578e-04 0.0000000000000000e+00  2.0589358278728234e-04 5.8348392548453806e-04 0.0000000000000000e+00  -1.0295882986675337e-04 1.1300389736425887e-03 0.0000000000000000e+00  -3.9816489825643734e-04 9.7611642418275193e-04 0.0000000000000000e+00  -4.2040809228148491e-04 7.0195020119264318e-04 0.0000000000000000e+00  -2.5672916917441750e-04 3.6457534151419145e-04 0.0000000000000000e+00  0.0000000000000000e+00 0.0000000000000000e+00 0.0000000000000000e+00  0.0000000000000000e+00 0.0000000000000000e+00 0.0000000000000000e+00  8.4018839987164986e-04 7.1861437806445779e-04 0.0000000000000000e+00  1.5207659131467720e-03 1.4429276049407005e-03 0.0000000000000000e+00  1.8515854426746693e-03 2.1772645668849244e-03 0.0000000000000000e+00  1.5674592320766094e-03 2.9224043494005232e-03 0.0000000000000000e+00  1.0491528246356159e-03 1.2576442168372374e-03 0.0000000000000000e+00  1.1419399164678341e-03 -1.6898101370521395e-04 0.0000000000000000e+00  9.3037082478337975e-04 9.1835012396774583e-05 0.0000000000000000e+00  4.7017397046112802e-04 1.7571563580919683e-04 0.0000000000000000e+00  1.3485448243007354e-04 1.9613089220263169e-04 0.0000000000000000e+00  -1.9469558976624237e-04 1.9295633523778630e-04 0.0000000000000000e+00  -6.2767128537530217e-04 1.9566534614908786e-04 0.0000000000000000e+00  -1.0184213197695416e-03 -2.9904975149726997e-04 0.0000000000000000e+00  -9.7921228184028822e-04 9.6682681795083624e-04 0.0000000000000000e+00  -1.5335809324744333e-03 2.6410767405538353e-03 0.0000000000000000e+00  -1.7966279228880384e-03 1.9819699178117217e-03 0.0000000000000000e+00  -1.4707809342645042e-03 1.3181550462252863e-03 0.0000000000000000e+00  -8.1127452139606376e-04 6.5753832083808184e-04 0.0000000000000000e+00  0.0000000000000000e+00 0.0000000000000000e+00 0.0000000000000000e+00  0.0000000000000000e+00 0.0000000000000000e+00 0.0000000000000000e+00  2.0258732663476237e-03 1.0073564617304443e-03 0.0000000000000000e+00  3.9464729005356143e-03 2.0608397752880890e-03 0.0000000000000000e+00  5.6433836260289319e-03 3.2157466103139016e-03 0.0000000000000000e+00  6.9698102851428623e-03 4.5493608659713915e-03 0.0000000000000000e+00  6.7118403007240110e-03 1.5123231064600921e-03 0.0000000000000000e+00  6.9661147258851305e-03 -1.4948143434174207e-03 0.0000000000000000e+00  4.8976007144700493e-03 -1.1057625362267765e-03 0.0000000000000000e+00  2.5866359457849897e-03 -8.8428058788500997e-04 0.0000000000000000e+00  1.7914293930052457e-04 -8.2023336959384226e-04 0.0000000000000000e+00  -2.2638828696123475e-03 -9.1780388744757400e-04 0.0000000000000000e+00  -4.6951711664925573e-03 -1.2109049526850843e-03 0.0000000000000000e+00  -7.0192773047195239e-03 -1.7866142244053545e-03 0.0000000000000000e+00  -6.7826010158271305e-03 1.2303520709904994e-03 0.0000000000000000e+00  -6.9231965426506011e-03 4.2719379796944011e-03 0.0000000000000000e+00  -5.5449014744978200e-03 3.0045848258234346e-03 0.0000000000000000e+00  -3.8529148135723413e-03 1.9202961451314881e-03 0.0000000000000000e+00  -1.9711356302392585e-03 9.3740026958426996e-04 0.0000000000000000e+00  0.0000000000000000e+00 0.0000000000000000e+00 0.0000000000000000e+00  0.0000000000000000e+00 0.0000000000000000e+00 0.0000000000000000e+00  3.6271609448254890e-03 1.1104741808454349e-03 0.0000000000000000e+00  7.2581531007877582e-03 2.2711250090444706e-03 0.0000000000000000e+00  1.0902105922139558e-02 3.5365763164961293e-03 0.0000000000000000e+00  1.4580505905246432e-02 4.9701757297501148e-03 0.0000000000000000e+00  1.4628078144864332e-02 1.4162621299597491e-03 0.0000000000000000e+00  1.4664151272423901e-02 -2.1841018721663438e-03 0.0000000000000000e+00  9.8449954967369281e-03 -1.6351517841183753e-03 0.0000000000000000e+00  5.0939017655835155e-03 -1.3163608621810608e-03 0.0000000000000000e+00  3.6459074693837436e-04 -1.1917733690490861e-03 0.0000000000000000e+00  -4.3875892664185408e-03 -1.2484283455008961e-03 0.0000000000000000e+00  -9.2060542976769490e-03 -1.4898913244971389e-03 0.0000000000000000e+00  -1.4129002498666964e-02 -1.9298785115374230e-03 0.0000000000000000e+00  -1.4175167908553842e-02 1.3552661499699830e-03 0.0000000000000000e+00  -1.4171534551485059e-02 4.6172409729813742e-03 0.0000000000000000e+00  -1.0535332372981779e-02 3.2908230093126644e-03 0.0000000000000000e+00  -6.9868722939681518e-03 2.1143877759005948e-03 0.0000000000000000e+00  -3.4838357075475650e-03 1.0339394571848941e-03 0.0000000000000000e+00  0.0000000000000000e+00 0.0000000000000000e+00 0.0000000000000000e+00  0.0000000000000000e+00 0.0000000000000000e+00 0.0000000000000000e+00  5.2056287200526515e-03 1.0121415939285999e-03 0.0000000000000000e+00  1.0505661719968938e-02 2.0606366448397547e-03 0.0000000000000000e+00  1.6003217228913347e-02 3.1824528843320955e-03 0.0000000000000000e+00  2.1818695092039160e-02 4.4150531271266360e-03 0.0000000000000000e+00  2.2029906528356735e-02 1.3659741253118048e-03 0.0000000000000000e+00  2.1851039427604281e-02 -1.6689445230049552e-03 0.0000000000000000e+00  1.4539429765457284e-02 -1.2498401198565547e-03 0.0000000000000000e+00  7.5226491945021273e-03 -9.7639159829189808e-04 0.0000000000000000e+00  6.4151706846993402e-04 -8.4262174815115387e-04 0.0000000000000000e+00  -6.2546980604446609e-03 -8.4400442873395131e-04 0.0000000000000000e+00  -1.3317218953292451e-02 -9.7893273590527081e-04 0.0000000000000000e+00  -2.0707465007293573e-02 -1.2479477513366543e-03 0.0000000000000000e+00  -2.0921734787059654e-02 1.4450676666865386e-03 0.0000000000000000e+00  -2.0720248578205199e-02 4.1380821181759798e-03 0.0000000000000000e+00  -1.5153585079902271e-02 2.9743767942422960e-03 0.0000000000000000e+00  -9.9263136520964055e-03 1.9226052871715005e-03 0.0000000000000000e+00  -4.9120599574550648e-03 9.4343376433476402e-04 0.0000000000000000e+00  0.0000000000000000e+00 0.0000000000000000e+00 0.0000000000000000e+00  0.0000000000000000e+00 0.0000000000000000e+00 0.0000000000000000e+00  6.3987026182657433e-03 7.6809626595641175e-04 0.0000000000000000e+00  1.2948848519580416e-02 1.5562284887647188e-03 0.0000000000000000e+00  1.9809971294336502e-02 2.3839499746307817e-03 0.0000000000000000e+00  2.7157367777875620e-02 3.2698907050605656e-03 0.0000000000000000e+00  2.7467813503225382e-02 1.3473449919082984e-03 0.0000000000000000e+00  2.7185545167331245e-02 -5.7488710276278705e-04 0.0000000000000000e+00  1.8078128474915165e-02 -2.8764746933958128e-04 0.0000000000000000e+00  9.4204174865768001e-03 -8.2666296950299173e-05 0.0000000000000000e+00  9.7951619013323982e-04 4.2248785143919822e-05 0.0000000000000000e+00  -7.4665192215965298e-03 8.9839843736584212e-05 0.0000000000000000e+00  -1.6138935308549127e-02 6.3842746995309633e-05 0.0000000000000000e+00  -2.5270045355544789e-02 -3.0754651533935063e-05 0.0000000000000000e+00  -2.5573176221860609e-02 1.5071737800618993e-03 0.0000000000000000e+00  -2.5274105214522957e-02 3.0377833617093505e-03 0.0000000000000000e+00  -1.8390270705676143e-02 2.2090144971861278e-03 0.0000000000000000e+00  -1.1998623615482014e-02 1.4393644687086221e-03 0.0000000000000000e+00  -5.9229461357828703e-03 7.0960372995951748e-04 0.0000000000000000e+00  0.0000000000000000e+00 0.0000000000000000e+00 0.0000000000000000e+00  0.0000000000000000e+00 0.0000000000000000e+00 0.0000000000000000e+00  6.9786990226834910e-03 4.4403786840671193e-04 0.0000000000000000e+00  1.4133718373721904e-02 8.9329127808344163e-04 0.0000000000000000e+00  2.1648031202411981e-02 1.3522809023080963e-03 0.0000000000000000e+00  2.9717827274020510e-02 1.8242286080502480e-03 0.0000000000000000e+00  3.0067958436539453e-02 1.3353621448227661e-03 0.0000000000000000e+00  2.9736709592418285e-02 8.4754717377495323e-04 0.0000000000000000e+00  1.9845147886543568e-02 1.0000383125298375e-03 0.0000000000000000e+00  1.0465553104230982e-02 1.1286070934370988e-03 0.0000000000000000e+00  1.3388230657677260e-03 1.2328578322923882e-03 0.0000000000000000e+00  -7.7842660138772316e-03 1.3146164023706789e-03 0.0000000000000000e+00  -1.7152723744406514e-02 1.3778887177154091e-03 0.0000000000000000e+00  -2.7024558515435726e-02 1.4290307045992658e-03 0.0000000000000000e+00  -2.7358650646096262e-02 1.5322208610298272e-03 0.0000000000000000e+00  -2.7020571688351591e-02 1.6304715442981869e-03 0.0000000000000000e+00  -1.9633633983595713e-02 1.2067258094717894e-03 0.0000000000000000e+00  -1.2794610890971680e-02 7.9609343232074745e-04 0.0000000000000000e+00  -6.3103113045979231e-03 3.9540513094260104e-04 0.0000000000000000e+00  -8.8664235349117551e-10 0.0000000000000000e+00 0.0000000000000000e+00  0.0000000000000000e+00 0.0000000000000000e+00 0.0000000000000000e+00  6.8467070807457569e-03 9.9275037721683647e-05 0.0000000000000000e+00  1.3867169854701185e-02 1.9147500084932409e-04 0.0000000000000000e+00  2.1240362016232826e-02 2.6880579476386122e-04 0.0000000000000000e+00  2.9155623494676632e-02 3.2200642904935275e-04 0.0000000000000000e+00  2.9497630501479962e-02 1.3364363202861655e-03 0.0000000000000000e+00  2.9173311175139709e-02 2.3528791468230459e-03 0.0000000000000000e+00  1.9591901526433520e-02 2.3823100275687735e-03 0.0000000000000000e+00  1.0511722400287379e-02 2.4359393296835047e-03 0.0000000000000000e+00  1.6837696293963711e-03 2.5122326436759898e-03 0.0000000000000000e+00  -7.1331551478198167e-03 2.6122490408551245e-03 0.0000000000000000e+00  -1.6179901560748052e-02 2.7396088833919825e-03 0.0000000000000000e+00  -2.5704392082596089e-02 2.9005454825564037e-03 0.0000000000000000e+00  -2.6017612404123674e-02 1.5348953049154871e-03 0.0000000000000000e+00  -2.5687397760580988e-02 1.6663691311471200e-04 0.0000000000000000e+00  -1.8660926305789683e-02 1.5216255089215669e-04 0.0000000000000000e+00  -1.2157714613256728e-02 1.1365440469021959e-04 0.0000000000000000e+00  -5.9949791970927840e-03 6.0341796060227113e-05 0.0000000000000000e+00  0.0000000000000000e+00 0.0000000000000000e+00 0.0000000000000000e+00  0.0000000000000000e+00 0.0000000000000000e+00 0.0000000000000000e+00  6.0128783286860377e-03 -2.1716408978329150e-04 0.0000000000000000e+00  1.2175269042992995e-02 -4.5080825124041451e-04 0.0000000000000000e+00  1.8640427355455028e-02 -7.1801726986934805e-04 0.0000000000000000e+00  2.5568957727121481e-02 -1.0375129305173971e-03 0.0000000000000000e+00  2.5866408355619947e-02 1.3526959407345954e-03 0.0000000000000000e+00  2.5591904230113892e-02 3.7450907544592368e-03 0.0000000000000000e+00  1.7360288570618703e-02 3.6688766435525916e-03 0.0000000000000000e+00  9.5612825498856413e-03 3.6536518706521844e-03 0.0000000000000000e+00  1.9840582102043855e-03 3.6977737908916652e-03 0.0000000000000000e+00  -5.5761910980002766e-03 3.8016581559072679e-03 0.0000000000000000e+00  -1.3323951306989617e-02 3.9683494269307481e-03 0.0000000000000000e+00  -2.1468889129057731e-02 4.2035233255515907e-03 0.0000000000000000e+00  -2.1721343259712877e-02 1.5248121279477643e-03 0.0000000000000000e+00  -2.1436085495678110e-02 -1.1551565875460420e-03 0.0000000000000000e+00  -1.5572925420748002e-02 -8.0610670799892382e-04 0.0000000000000000e+00  -1.0145493069929165e-02 -5.0944804703598103e-04 0.0000000000000000e+00  -5.0025426687764869e-03 -2.4648063352969993e-04 0.0000000000000000e+00  0.0000000000000000e+00 0.0000000000000000e+00 0.0000000000000000e+00  0.0000000000000000e+00 0.0000000000000000e+00 0.0000000000000000e+00  4.5741782198825583e-03 -4.6779062074299156e-04 0.0000000000000000e+00  9.2572533749328070e-03 -9.5847135842828479e-04 0.0000000000000000e+00  1.4161056019157415e-02 -1.4955921639505313e-03 0.0000000000000000e+00  1.9402427398791118e-02 -2.1042484107436869e-03 0.0000000000000000e+00  1.9627865458458384e-02 1.3843770623087870e-03 0.0000000000000000e+00  1.9434315823634623e-02 4.8746806764922226e-03 0.0000000000000000e+00  1.3424262999108294e-02 4.7114657390520676e-03 0.0000000000000000e+00  7.7352655488640756e-03 4.6363658511424932e-03 0.0000000000000000e+00  2.2153904125047342e-03 4.6466975663401518e-03 0.0000000000000000e+00  -3.2829352908668253e-03 4.7423541540273229e-03 0.0000000000000000e+00  -8.9072327297723200e-03 4.9258066467525357e-03 0.0000000000000000e+00  -1.4808976287986634e-02 5.2020910222404732e-03 0.0000000000000000e+00  -1.4972814130746069e-02 1.5096212709145044e-03 0.0000000000000000e+00  -1.4760055271951317e-02 -2.1834447216463066e-03 0.0000000000000000e+00  -1.0719466417657583e-02 -1.5548347718257237e-03 0.0000000000000000e+00  -6.9816705683840357e-03 -9.9786096762820016e-04 0.0000000000000000e+00  -3.4419574752976019e-03 -4.8745511542172960e-04 0.0000000000000000e+00  0.0000000000000000e+00 0.0000000000000000e+00 0.0000000000000000e+00  0.0000000000000000e+00 0.0000000000000000e+00 0.0000000000000000e+00  2.6910573460825079e-03 -6.2698537005741466e-04 0.0000000000000000e+00  5.4401658140136684e-03 -1.2804089676259468e-03 0.0000000000000000e+00  8.3072549105606876e-03 -1.9873664574505431e-03 0.0000000000000000e+00  1.1354314396290935e-02 -2.7763179494662482e-03 0.0000000000000000e+00  1.1488591646629203e-02 1.4282576018656923e-03 0.0000000000000000e+00  1.1395254673202454e-02 5.6332375831525837e-03 0.0000000000000000e+00  8.2288680123202371e-03 5.4043882196988932e-03 0.0000000000000000e+00  5.2440083279281409e-03 5.2800721043649778e-03 0.0000000000000000e+00  2.3606374629258973e-03 5.2570665842459671e-03 0.0000000000000000e+00  -4.9870454290965147e-04 5.3346872443768602e-03 0.0000000000000000e+00  -3.4111039136601514e-03 5.5148045028144254e-03 0.0000000000000000e+00  -6.4551562990823371e-03 5.8018400792056628e-03 0.0000000000000000e+00  -6.5144042972492900e-03 1.4931146851097164e-03 0.0000000000000000e+00  -6.3933287627358391e-03 -2.8163555859855079e-03 0.0000000000000000e+00  -4.6314491713361338e-03 -2.0172309346659224e-03 0.000000