<?xml version="1.0"?>
<VTKFile type="UnstructuredGrid"  version="0.1"  >
<UnstructuredGrid>
<Piece  NumberOfPoints="589" NumberOfCells="1080">
<Points>
<DataArray  type="Float64"  NumberOfComponents="3"  format="ascii">-9 0 0  -8 0 0  -7 0 0  -6 0 0  -5 0 0  -4 0 0  -3 0 0  -2 0 0  -1 0 0  0 0 0  1 0 0  2 0 0  3 0 0  4 0 0  5 0 0  6 0 0  7 0 0  8 0 0  9 0 0  -9 2 0  -8.000003954921734 1.9999942508871 0  -7.000008294082482 1.999989192198572 0  -6.000013906281486 1.999985382591844 0  -5.000022811402865 1.999983060905694 0  -4.000013739343218 1.999987404832263 0  -3.000004381809181 1.999991423402682 0  -1.999999754011838 1.999995152404198 0  -0.9999988467292177 1.999998100009421 0  -2.668432820099436e-07 1.999999404461337 0  0.9999981283517188 1.999998547420235 0  1.999998412459884 1.999995748698624 0  3.000001975229004 1.999992318625018 0  4.000009235721802 1.999988673111442 0  5.000019688097802 1.999987276915928 0  6.000011832132576 1.999987788314999 0  7.000007013040865 1.999990573417632 0  8.00000334192668 1.999994895413193 0  9 2 0  -9 4 0  -8.000006372840314 3.999985740260916 0  -7.000011496015567 3.999973388208348 0  -6.000014640847666 3.999964813576153 0  -5.000015960726158 3.999961801355128 0  -4.000002879980604 3.999963833197853 0  -2.999994041493805 3.999975010616695 0  -1.99999158330229 3.9999895363901 0  -0.9999946623770609 4.000001217143118 0  -7.64543837297814e-07 4.000005961537959 0  0.9999929871478421 4.000002393121179 0  1.999989410432569 3.999992637660078 0  2.999991315920245 3.999979433478886 0  3.999999546839415 3.999966220224344 0  5.000012035183653 3.999961994274445 0  6.000011516726637 3.999966481928994 0  7.000009434124815 3.999974999451171 0  8.000005367030182 3.999986660656792 0  9 4 0  -9 6 0  -8.000013789189451 5.999969599772887 0  -7.00002261130596 5.999942475350689 0  -6.000022675244494 5.999921995691342 0  -5.000012894394632 5.999911390343883 0  -3.999987579089336 5.999927935742932 0  -2.999975984336837 5.999962389291302 0  -1.99998035288223 5.999998481905521 0  -0.999991460883233 6.000018547962219 0  -2.68330511979291e-06 6.000022630129399 0  0.999987274267469 6.000016228032775 0  1.99997968237796 5.999998464494688 0  2.999976930221064 5.999968473663815 0  3.999982959960606 5.999937440045772 0  5.000004374990255 5.999922240955712 0  6.00001745789314 5.99992905680811 0  7.000019792953411 5.99994685159548 0  8.000012591539537 5.999971714153662 0  9 6 0  -9 8 0  -8.000041071627271 7.999940360108343 0  -7.00006875779057 7.999884987779669 0  -6.000070087954559 7.999839684821618 0  -5.000033960522155 7.999814018901847 0  -3.999985141709068 7.999890089011461 0  -2.999994054354749 7.9999794672342 0  -2.00001228898227 8.000023012185123 0  -1.000013791272783 8.000027959143756 0  -2.842493314264552e-06 8.000029384429782 0  1.000005428326424 8.000033688889683 0  2.00000229001967 8.000015724095586 0  2.999981503341836 7.999985091849693 0  3.999974680772733 7.999909283394331 0  5.000022317548675 7.999823807937168 0  6.00006638739757 7.999847721820778 0  7.000068294207201 7.999890437140962 0  8.000041373578398 7.999943077886836 0  9 8 0  -9 10 0  -8.000121875600589 9.999894066580113 0  -7.000220305945912 9.999787248067598 0  -6.000267310436221 9.999678867580315 0  -5.000223932546478 9.999568732741414 0  -4.000146543056708 9.999814229949409 0  -3.000159071206412 10.00002539921783 0  -2.000127664259688 9.999989058280793 0  -1.000059723673054 9.999977403103141 0  -9.722652443257545e-06 9.999974569636814 0  1.000039798400716 9.999974792908985 0  2.000105515850245 9.999973517271153 0  3.000163615918002 10.0000484569786 0  4.000156868743058 9.999850469026482 0  5.000243855616872 9.99958943255737 0  6.0002839263151 9.99969121402389 0  7.000232078302616 9.999794339384744 0  8.000127949826128 9.999897327817274 0  9 10 0  -9 12 0  -8.000296366515423 11.99985134837531 0  -7.000577404078726 11.99969581518705 0  -6.000825769690942 11.99952517034136 0  -5.001019981690446 11.99932793164246 0  -4.000980242460271 11.99977558186356 0  -3.001015813128189 12.00021885351241 0  -2.000700290131532 12.00016492930004 0  -1.000348961754449 12.00013545822179 0  1.604989549523928e-05 12.00012919674423 0  1.000384948485936 12.00014702802757 0  2.000749548347497 12.00019426994456 0  3.001093643943463 12.00028427755106 0  4.001056640961212 11.99981011953186 0  5.001081680624958 11.99933214780515 0  6.000868930736503 11.99952940611308 0  7.000604879527055 11.99969883573264 0  8.000309747372977 11.99985287150107 0  9 12 0  -9 14 0  -8.000531979029434 13.99983619592572 0  -7.001064879343105 13.99966489726445 0  -6.001600312254613 13.9994779482455 0  -5.002141735526402 13.99926589886115 0  -4.00214696172945 13.99978941372331 0  -3.002150007635192 14.00031958001729 0  -2.001416502709392 14.00024306047624 0  -1.000693094974364 14.00020073902028 0  2.631555416544919e-05 14.00018751164037 0  1.00074757083126 14.00020169062516 0  2.001476128313 14.00024406273502 0  3.002216330154207 14.00031695086784 0  4.002222826997301 13.99979178761918 0  5.002226078004121 13.99926993916521 0  6.001658681015338 13.999479063175 0  7.001101735704141 13.99966499719196 0  8.000549838268141 13.99983609332658 0  9 14 0  -9 16 0  -8.000763641353242 15.99985104808556 0  -7.001541788021986 15.9996966362828 0  -6.002350191674418 15.99953121097387 0  -5.003207193883399 15.99934912751987 0  -4.003237273804133 15.99979650888939 0  -3.003208505873133 16.00024150198387 0  -2.002093008525552 16.00018461073125 0  -1.001021540543215 16.00014981353296 0  2.920929026422096e-05 16.00013635427215 0  1.001081295216276 16.00014373097843 0  2.002156791526308 16.00017194141168 0  3.003279187036198 16.00022137192983 0  4.003311790252259 15.99977831974378 0  5.00328384428115 15.9993349037839 0  6.002405849490409 15.9995215814092 0  7.001577931149525 15.99969058108899 0  8.000781412798538 15.9998481102653 0  9 16 0  -9 18 0  -8.000937001877217 17.99988774659288 0  -7.001897170225843 17.99977245673853 0  -6.002904873466324 17.99965115028045 0  -5.003986892622279 17.9995209801504 0  -4.004032547310114 17.99979816424216 0  -3.003988391631216 18.00007497411555 0  -2.002594266555133 18.00003795764694 0  -1.001267523335565 18.00001371555527 0  2.673895457479484e-05 18.00000203004596 0  1.00132174206862 18.00000260928256 0  2.002650662474322 18.00001510507668 0  3.004048243598573 18.0000390472866 0  4.004095101952255 17.99976805849603 0  5.004050847970229 17.99949786094057 0  6.002951829204735 17.99963487567181 0  7.001927972737077 17.99976208647683 0  8.000952249158908 17.99988269918507 0  9 18 0  -9 20 0  -8.00101743770913 19.99993658636787 0  -7.002061901600353 19.99987234994737 0  -6.003161451406428 19.99980655891142 0  -5.00434621781041 19.99973866446955 0  -4.004398383990079 19.99979805703095 0  -3.004346825192027 19.99985707358404 0  -2.002826976653884 19.99984033407689 0  -1.00138405027314 19.99982752225853 0  2.128277017307591e-05 19.9998187772777 0  1.001426936468601 19.99981394727406 0  2.002870802761914 19.99981259934753 0  3.004392149393094 19.99981399467704 0  4.004444653233036 19.99976269658341 0  5.004393093576444 19.99971196570367 0  6.003196253634846 19.9997874031321 0  7.002084926511229 19.99985999253429 0  8.00102889552354 19.99993053122472 0  8.999999999992669 19.99999999999844 0  -9 22 0  -8.000989530234822 21.99998871206574 0  -7.002005782063788 21.99997846000931 0  -6.003076314568453 21.99997038141756 0  -5.004230359137168 21.99996581942546 0  -4.004281409362317 21.99979579378597 0  -3.004230651441524 21.9996253902186 0  -2.00275298856806 21.99962704161162 0  -1.001350672166297 21.99962510728041 0  1.454050822212082e-05 21.99961991015604 0  1.001379740547459 21.99961139876294 0  2.002782001094995 21.99959915429735 0  3.004259511767792 21.99958238373191 0  4.004309893117798 21.99976072369542 0  5.004258648517482 21.99993943296597 0  6.003097756522648 21.9999513194281 0  7.002020173614434 21.99996609623207 0  8.000996752403038 21.99998263320342 0  9 22 0  -9 24 0  -8.000854492439045 24.00003669407428 0  -7.00173202313136 24.0000758754696 0  -6.002656270142861 24.00012013487722 0  -5.003652165654875 24.00017227628544 0  -4.003696095561926 23.99979173160687 0  -3.003652541417539 23.99941088100384 0  -2.002378573923865 23.99942805315297 0  -1.001169322385556 23.99943570663487 0  7.870609834773223e-06 23.99943426272474 0  1.001184791589144 23.99942374217586 0  2.00239321058064 23.99940376734332 0  3.003665737139745 23.999373559442 0  4.003707856498682 23.99976144991194 0  5.003663163808981 24.00014960241682 0  6.002665187813949 24.0001036689452 0  7.0017382773576 24.00006515496476 0  8.000857708812591 24.00003141110686 0  9 24 0  -9 26 0  -8.00062702305009 26.0000747314755 0  -7.001270855115923 26.00015297794 0  -6.00194874448986 26.00023835931347 0  -5.002678777139216 26.00033470932279 0  -4.002711053149997 25.99978629493147 0  -3.002679543698929 25.99923766468929 0  -2.001746213312308 25.99926705109389 0  -1.000860156752541 25.99928260836975 0  2.327853186558996e-06 25.99928483333224 0  1.000864350751632 25.99927381153561 0  2.001749005511753 25.99924921702676 0  3.002679943433072 25.99921031232584 0  4.00270926004179 25.99976417993012 0  5.002675812526974 26.00031821016496 0  6.001947525628562 26.00022634135307 0  7.001270509605751 26.00014513575997 0  8.000626987079675 26.00007086130019 0  9 26 0  -9 28 0  -8.000331997578177 28.00009871443102 0  -7.000672873018385 28.0002015437751 0  -6.001031740695248 28.00031270858893 0  -5.001418128080967 28.00043664248384 0  -4.001435703549094 27.99978002727452 0  -3.001419468110667 27.99912331586964 0  -2.000925661002423 27.99916127462444 0  -1.000457112482322 27.99918274678189 0  -1.327903706400078e-06 27.9991882972107 0  1.000453876244203 27.99917807354044 0  2.000920665464232 27.99915180643624 0  3.001411480474768 27.9991088091052 0  4.001425067928087 27.99976833518476 0  5.001406081459614 28.0004279552605 0  6.001023921095826 28.00030636834953 0  7.000668228265803 28.00019740028013 0  8.000329842839975 28.0000966675031
[...]
<PointData  Vectors="f_44-2"> 
<DataArray  type="Float64"  Name="f_44-2"  NumberOfComponents="3" format="ascii">0.0000000000000000e+00 0.0000000000000000e+00 0.0000000000000000e+00  0.0000000000000000e+00 0.0000000000000000e+00 0.0000000000000000e+00  0.0000000000000000e+00 0.0000000000000000e+00 0.0000000000000000e+00  0.0000000000000000e+00 0.0000000000000000e+00 0.0000000000000000e+00  0.0000000000000000e+00 0.0000000000000000e+00 0.0000000000000000e+00  0.0000000000000000e+00 0.0000000000000000e+00 0.0000000000000000e+00  0.0000000000000000e+00 0.0000000000000000e+00 0.0000000000000000e+00  0.0000000000000000e+00 0.0000000000000000e+00 0.0000000000000000e+00  0.0000000000000000e+00 0.0000000000000000e+00 0.0000000000000000e+00  0.0000000000000000e+00 0.0000000000000000e+00 0.0000000000000000e+00  0.0000000000000000e+00 0.0000000000000000e+00 0.0000000000000000e+00  0.0000000000000000e+00 0.0000000000000000e+00 0.0000000000000000e+00  0.0000000000000000e+00 0.0000000000000000e+00 0.0000000000000000e+00  0.0000000000000000e+00 0.0000000000000000e+00 0.0000000000000000e+00  0.0000000000000000e+00 0.0000000000000000e+00 0.0000000000000000e+00  0.0000000000000000e+00 0.0000000000000000e+00 0.0000000000000000e+00  0.0000000000000000e+00 0.0000000000000000e+00 0.0000000000000000e+00  0.0000000000000000e+00 0.0000000000000000e+00 0.0000000000000000e+00  0.0000000000000000e+00 0.0000000000000000e+00 0.0000000000000000e+00  0.0000000000000000e+00 0.0000000000000000e+00 0.0000000000000000e+00  -4.0478661287137910e-05 -6.7622767063475438e-05 0.0000000000000000e+00  -8.4213183150425274e-05 -1.2592510347093379e-04 0.0000000000000000e+00  -1.4042031872596388e-04 -1.6721790990058415e-04 0.0000000000000000e+00  -2.3146949458207629e-04 -1.8773123532464872e-04 0.0000000000000000e+00  -1.2638380121257747e-04 -1.4275910274382105e-04 0.0000000000000000e+00  -2.0881701524061273e-05 -9.4969719634967222e-05 0.0000000000000000e+00  2.7034402382045837e-05 -4.7851815635532618e-05 0.0000000000000000e+00  2.7733904216811740e-05 -1.0387236604908462e-05 0.0000000000000000e+00  -1.1962416172338418e-06 6.2693493111043300e-06 0.0000000000000000e+00  -3.2373887203971730e-05 -4.8682646997980588e-06 0.0000000000000000e+00  -3.9186070830186172e-05 -4.0871764166841888e-05 0.0000000000000000e+00  -4.1175197498915940e-06 -8.4276125793045323e-05 0.0000000000000000e+00  7.7542269599354191e-05 -1.2886957066069092e-04 0.0000000000000000e+00  1.9768407679565677e-04 -1.4204502716627258e-04 0.0000000000000000e+00  1.1797714048866555e-04 -1.4100700332504235e-04 0.0000000000000000e+00  7.0366196322033727e-05 -1.1072047407532848e-04 0.0000000000000000e+00  3.3863410029952094e-05 -6.0468149780242982e-05 0.0000000000000000e+00  0.0000000000000000e+00 0.0000000000000000e+00 0.0000000000000000e+00  0.0000000000000000e+00 0.0000000000000000e+00 0.0000000000000000e+00  -6.7932883096901336e-05 -1.7252273820144570e-04 0.0000000000000000e+00  -1.1853623781125476e-04 -3.1988497928902079e-04 0.0000000000000000e+00  -1.4147222890119923e-04 -4.1755190993039704e-04 0.0000000000000000e+00  -1.3841867310376203e-04 -4.4239477062106347e-04 0.0000000000000000e+00  2.0209696744287156e-05 -4.1802629555683795e-04 0.0000000000000000e+00  1.2281646947444067e-04 -2.7519472650520575e-04 0.0000000000000000e+00  1.4142650623024216e-04 -8.9411976959566239e-05 0.0000000000000000e+00  8.7179857022061499e-05 6.0799491515606270e-05 0.0000000000000000e+00  -6.3212284715749365e-06 1.2168768293630208e-04 0.0000000000000000e+00  -1.0159465016474649e-04 7.5020606082290092e-05 0.0000000000000000e+00  -1.6204201690743725e-04 -5.1150456589475426e-05 0.0000000000000000e+00  -1.5093846449080683e-04 -2.2122481461821333e-04 0.0000000000000000e+00  -5.6570766749686375e-05 -3.9105407654392018e-04 0.0000000000000000e+00  9.6030372724126859e-05 -4.4290580067955776e-04 0.0000000000000000e+00  1.0756999896321662e-04 -3.9900518228381729e-04 0.0000000000000000e+00  9.6298934800451733e-05 -3.0129948310196077e-04 0.0000000000000000e+00  5.7167676432288597e-05 -1.6179476393509746e-04 0.0000000000000000e+00  0.0000000000000000e+00 0.0000000000000000e+00 0.0000000000000000e+00  0.0000000000000000e+00 0.0000000000000000e+00 0.0000000000000000e+00  -1.6469919431057528e-04 -3.7804189754836774e-04 0.0000000000000000e+00  -2.6352798677625961e-04 -7.1260489015149411e-04 0.0000000000000000e+00  -2.4648186488047177e-04 -9.5916151500231373e-04 0.0000000000000000e+00  -9.9464740616642174e-05 -1.0754226038437247e-03 0.0000000000000000e+00  2.1996212086231574e-04 -8.5950655005070616e-04 0.0000000000000000e+00  3.5969715141323760e-04 -4.1109765225396012e-04 0.0000000000000000e+00  2.8934469182675536e-04 5.8562910785823713e-05 0.0000000000000000e+00  1.3086364911268553e-04 3.1876919995517747e-04 0.0000000000000000e+00  -2.8781878243843539e-05 3.7050265462694611e-04 0.0000000000000000e+00  -1.7325930681292979e-04 2.8734365650979376e-04 0.0000000000000000e+00  -2.8623831717760424e-04 5.6220155088970279e-05 0.0000000000000000e+00  -3.3514811345761441e-04 -3.3536891122542851e-04 0.0000000000000000e+00  -2.6789155242167337e-04 -7.4082255299689375e-04 0.0000000000000000e+00  1.4837666581314774e-06 -9.4055953529851297e-04 0.0000000000000000e+00  1.8840466599890967e-04 -8.7220413409231550e-04 0.0000000000000000e+00  2.3366607006570782e-04 -6.5905249301873904e-04 0.0000000000000000e+00  1.5260868483962063e-04 -3.5226080681745873e-04 0.0000000000000000e+00  0.0000000000000000e+00 0.0000000000000000e+00 0.0000000000000000e+00  0.0000000000000000e+00 0.0000000000000000e+00 0.0000000000000000e+00  -5.2461727830943876e-04 -7.5737011422858497e-04 0.0000000000000000e+00  -8.7197767439222047e-04 -1.4572355005038290e-03 0.0000000000000000e+00  -8.7134923168438847e-04 -2.0218397732942157e-03 0.0000000000000000e+00  -3.7856054647819322e-04 -2.3237144096145963e-03 0.0000000000000000e+00  2.5378758170308571e-04 -1.3270056277739422e-03 0.0000000000000000e+00  1.2270927546971733e-04 -1.5677249661604002e-04 0.0000000000000000e+00  -1.2941483412494886e-04 4.0973107126902311e-04 0.0000000000000000e+00  -1.6069194998413457e-04 4.6878281157678776e-04 0.0000000000000000e+00  -2.7111989717930263e-05 4.8552266833965760e-04 0.0000000000000000e+00  7.0377690446810111e-05 5.4474203737940813e-04 0.0000000000000000e+00  1.8685398871853920e-05 3.1078587889237571e-04 0.0000000000000000e+00  -2.6810052805856531e-04 -8.4652477382398533e-05 0.0000000000000000e+00  -3.7554713760924377e-04 -1.0797361304721238e-03 0.0000000000000000e+00  2.3807062613620783e-04 -2.2056548404652300e-03 0.0000000000000000e+00  8.3579822979882928e-04 -1.9244307336413581e-03 0.0000000000000000e+00  8.7621411737278873e-04 -1.3912462050761553e-03 0.0000000000000000e+00  5.3417505943314039e-04 -7.2451384985184534e-04 0.0000000000000000e+00  0.0000000000000000e+00 0.0000000000000000e+00 0.0000000000000000e+00  0.0000000000000000e+00 0.0000000000000000e+00 0.0000000000000000e+00  -1.5930163767741725e-03 -1.3662785475846817e-03 0.0000000000000000e+00  -2.8722872910981957e-03 -2.7422303316055026e-03 0.0000000000000000e+00  -3.4643043869903248e-03 -4.1343140475411707e-03 0.0000000000000000e+00  -2.8498869914554584e-03 -5.5413331321597708e-03 0.0000000000000000e+00  -1.8355249517181507e-03 -2.2948495865031996e-03 0.0000000000000000e+00  -2.0276654797672885e-03 4.9174923198633030e-04 0.0000000000000000e+00  -1.6385314649694043e-03 -7.8283107931020020e-06 0.0000000000000000e+00  -7.5817854340486427e-04 -1.6815078672326425e-04 0.0000000000000000e+00  -1.1564233717504198e-04 -2.0741940453720162e-04 0.0000000000000000e+00  5.2071448490274093e-04 -2.0280056547457729e-04 0.0000000000000000e+00  1.3731437697042084e-03 -2.1465049045126620e-04 0.0000000000000000e+00  2.1124104114488076e-03 8.0096277169740694e-04 0.0000000000000000e+00  1.9976717498885010e-03 -1.8176442289833043e-03 0.0000000000000000e+00  3.1457232047768205e-03 -5.2834767414896991e-03 0.0000000000000000e+00  3.7112781270244601e-03 -3.9836079599847359e-03 0.0000000000000000e+00  3.0478536651226728e-03 -2.6571357314384872e-03 0.0000000000000000e+00  1.6838109627979692e-03 -1.3275807581516808e-03 0.0000000000000000e+00  0.0000000000000000e+00 0.0000000000000000e+00 0.0000000000000000e+00  0.0000000000000000e+00 0.0000000000000000e+00 0.0000000000000000e+00  -3.9138464352668281e-03 -1.9355483195667392e-03 0.0000000000000000e+00  -7.6174439758664230e-03 -3.9610981678110235e-03 0.0000000000000000e+00  -1.0873119850119775e-02 -6.1842762710902742e-03 0.0000000000000000e+00  -1.3385707438587302e-02 -8.7551876941165761e-03 0.0000000000000000e+00  -1.2856447927067156e-02 -2.7872618733796781e-03 0.0000000000000000e+00  -1.3347995350662964e-02 3.1215317494326447e-03 0.0000000000000000e+00  -9.2094390953513534e-03 2.4024582634217611e-03 0.0000000000000000e+00  -4.5734854481559867e-03 2.0098183146974708e-03 0.0000000000000000e+00  2.5313199226791115e-04 1.9283630272523412e-03 0.0000000000000000e+00  5.1298962836043623e-03 2.1702041829518158e-03 0.0000000000000000e+00  9.9373430890722699e-03 2.8062033691997864e-03 0.0000000000000000e+00  1.4446027057488348e-02 4.0127808181266503e-03 0.0000000000000000e+00  1.3926484996681402e-02 -2.3284772548938103e-03 0.0000000000000000e+00  1.4263232865067570e-02 -8.7233785072436607e-03 0.0000000000000000e+00  1.1496973640738616e-02 -6.1471463619230159e-03 0.0000000000000000e+00  8.0191121498466595e-03 -3.9340990815655433e-03 0.0000000000000000e+00  4.1107788601008324e-03 -1.9219739906348441e-03 0.0000000000000000e+00  0.0000000000000000e+00 0.0000000000000000e+00 0.0000000000000000e+00  0.0000000000000000e+00 0.0000000000000000e+00 0.0000000000000000e+00  -7.0703776791750461e-03 -2.1437342549234569e-03 0.0000000000000000e+00  -1.4145803113078618e-02 -4.3875862164785302e-03 0.0000000000000000e+00  -2.1239763862009004e-02 -6.8405757432610532e-03 0.0000000000000000e+00  -2.8387927748932500e-02 -9.6292498365760353e-03 0.0000000000000000e+00  -2.8455028746839320e-02 -2.5924473990590236e-03 0.0000000000000000e+00  -2.8520178379730872e-02 4.5319210142891813e-03 0.0000000000000000e+00  -1.8779908001249745e-02 3.5089730402357352e-03 0.0000000000000000e+00  -9.1559602816803330e-03 2.9447910973248786e-03 0.0000000000000000e+00  4.2258574079244644e-04 2.7722813282944360e-03 0.0000000000000000e+00  1.0023982918131029e-02 2.9695508898414076e-03 0.0000000000000000e+00  1.9711171327376167e-02 3.5475387335218355e-03 0.0000000000000000e+00  2.9531019267850175e-02 4.5375179114211109e-03 0.0000000000000000e+00  2.9590820897879459e-02 -2.5593639299522093e-03 0.0000000000000000e+00  2.9638191818529634e-02 -9.6133206873452171e-03 0.0000000000000000e+00  2.2116535226538853e-02 -6.8538468492089031e-03 0.0000000000000000e+00  1.4704918968720547e-02 -4.4049244204046809e-03 0.0000000000000000e+00  7.3429656404933718e-03 -2.1544233231760115e-03 0.0000000000000000e+00  0.0000000000000000e+00 0.0000000000000000e+00 0.0000000000000000e+00  0.0000000000000000e+00 0.0000000000000000e+00 0.0000000000000000e+00  -1.0199460298192978e-02 -1.9507235156952611e-03 0.0000000000000000e+00  -2.0588063888135374e-02 -3.9759910815320952e-03 0.0000000000000000e+00  -3.1370345550869018e-02 -6.1518314418819095e-03 0.0000000000000000e+00  -4.2784909356208212e-02 -8.5560644573725326e-03 0.0000000000000000e+00  -4.3187830140024482e-02 -2.4838111367222701e-03 0.0000000000000000e+00  -4.2821308814732430e-02 3.5575560168142383e-03 0.0000000000000000e+00  -2.7903798462461309e-02 2.7862244617381212e-03 0.0000000000000000e+00  -1.3565072117662011e-02 2.3177473157565210e-03 0.0000000000000000e+00  5.0086610743845167e-04 2.1412969561093224e-03 0.0000000000000000e+00  1.4583521224759730e-02 2.2502268179417557e-03 0.0000000000000000e+00  2.8972588796734575e-02 2.6450388512067324e-03 0.0000000000000000e+00  4.3976182378509775e-02 3.3319311165226676e-03 0.0000000000000000e+00  4.4393081560614917e-02 -2.7283561607859652e-03 0.0000000000000000e+00  4.4019969778256743e-02 -8.7931720584168149e-03 0.0000000000000000e+00  3.2274654318636971e-02 -6.3155223980426289e-03 0.0000000000000000e+00  2.1179192928877825e-02 -4.0800963011139316e-03 0.0000000000000000e+00  1.0491531628778727e-02 -2.0015270381608082e-03 0.0000000000000000e+00  0.0000000000000000e+00 0.0000000000000000e+00 0.0000000000000000e+00  0.0000000000000000e+00 0.0000000000000000e+00 0.0000000000000000e+00  -1.2565716883475891e-02 -1.4593366547688183e-03 0.0000000000000000e+00  -2.5440565824203447e-02 -2.9613768708094887e-03 0.0000000000000000e+00  -3.8949667421090566e-02 -4.5482663359079087e-03 0.0000000000000000e+00  -5.3450184873336345e-02 -6.2609168108297107e-03 0.0000000000000000e+00  -5.4067603774887459e-02 -2.4440589698762434e-03 0.0000000000000000e+00  -5.3483598215771949e-02 1.3680518738846035e-03 0.0000000000000000e+00  -3.4736454069421191e-02 8.5780315258412337e-04 0.0000000000000000e+00  -1.6894328980549739e-02 5.2758553567160593e-04 0.0000000000000000e+00  5.1175862232798479e-04 3.7371644043368216e-04 0.0000000000000000e+00  1.7927492126698710e-02 3.9218704005714066e-04 0.0000000000000000e+00  3.5798211606747524e-02 5.7881281537380119e-04 0.0000000000000000e+00  5.4590434163200113e-02 9.2839182964183557e-04 0.0000000000000000e+00  5.5211155549997323e-02 -2.8538345249380370e-03 0.0000000000000000e+00  5.4613343719909321e-02 -6.6252546792966377e-03 0.0000000000000000e+00  3.9808937737656119e-02 -4.8064757048288951e-03 0.0000000000000000e+00  2.6006959331575565e-02 -3.1267181035033887e-03 0.0000000000000000e+00  1.2846850936603933e-02 -1.5400507382470456e-03 0.0000000000000000e+00  0.0000000000000000e+00 0.0000000000000000e+00 0.0000000000000000e+00  0.0000000000000000e+00 0.0000000000000000e+00 0.0000000000000000e+00  -1.3688294102519219e-02 -7.9724279817529396e-04 0.0000000000000000e+00  -2.7741913872325927e-02 -1.6071598655695324e-03 0.0000000000000000e+00  -4.2540261229881221e-02 -2.4413362040736700e-03 0.0000000000000000e+00  -5.8490936769296072e-02 -3.3092297981189077e-03 0.0000000000000000e+00  -5.9202192359628016e-02 -2.4264406202282635e-03 0.0000000000000000e+00  -5.8507863569398730e-02 -1.5490879589798977e-03 0.0000000000000000e+00  -3.7976523951676874e-02 -1.7871366225642722e-03 0.0000000000000000e+00  -1.8491175987421348e-02 -1.9643542303448155e-03 0.0000000000000000e+00  4.8343995002023761e-04 -2.0795413532110224e-03 0.0000000000000000e+00  1.9463095417481112e-02 -2.1349013140767427e-03 0.0000000000000000e+00  3.8963184483395884e-02 -2.1359177817613412e-03 0.0000000000000000e+00  5.9518287393535242e-02 -2.0916886565049810e-03 0.0000000000000000e+00  6.0226618782885530e-02 -2.9123435721954542e-03 0.0000000000000000e+00  5.9523236462767630e-02 -3.7254996939325115e-03 0.0000000000000000e+00  4.3308300392656963e-02 -2.7408001775083343e-03 0.0000000000000000e+00  2.8250920518857747e-02 -1.8007241776182574e-03 0.0000000000000000e+00  1.3941871363848979e-02 -8.9221055851612793e-04 0.0000000000000000e+00  -1.8790980412239237e-11 0.0000000000000000e+00 0.0000000000000000e+00  0.0000000000000000e+00 0.0000000000000000e+00 0.0000000000000000e+00  -1.3342934965983794e-02 -8.4576112161330623e-05 0.0000000000000000e+00  -2.7050240866484925e-02 -1.5591786004392615e-04 0.0000000000000000e+00  -4.1497928961448785e-02 -1.9948132233097097e-04 0.0000000000000000e+00  -5.7085346903528636e-02 -1.9808115207421565e-04 0.0000000000000000e+00  -5.7786774983417402e-02 -2.4399006473090302e-03 0.0000000000000000e+00  -5.7095854931254547e-02 -4.6879630165303048e-03 0.0000000000000000e+00  -3.7060268907255382e-02 -4.6741436207844728e-03 0.0000000000000000e+00  -1.8058656174256078e-02 -4.7030449202545314e-03 0.0000000000000000e+00  4.3486527060371374e-04 -4.7707597019280177e-03 0.0000000000000000e+00  1.8929794070199103e-02 -4.8781159850088277e-03 0.0000000000000000e+00  3.7935426463711966e-02 -5.0305978033495071e-03 0.0000000000000000e+00  5.7977069565488336e-02 -5.2384480144146836e-03 0.0000000000000000e+00  5.8664559824239723e-02 -2.9256919727876172e-03 0.0000000000000000e+00  5.7959096956363497e-02 -6.0867040231136419e-04 0.0000000000000000e+00  4.2153237006980218e-02 -4.9643868514762980e-04 0.0000000000000000e+00  2.7486998675059070e-02 -3.4869594378146785e-04 0.0000000000000000e+00  1.3561246500782928e-02 -1.7940971488180580e-04 0.0000000000000000e+00  0.0000000000000000e+00 0.0000000000000000e+00 0.0000000000000000e+00  0.0000000000000000e+00 0.0000000000000000e+00 0.0000000000000000e+00  -1.1533257792028698e-02 5.7516954745751795e-04 0.0000000000000000e+00  -2.3382583811920755e-02 1.1842194869303546e-03 0.0000000000000000e+00  -3.5872634935619915e-02 1.8624854583363804e-03 0.0000000000000000e+00  -4.9346430009316787e-02 2.6481497637040451e-03 0.0000000000000000e+00  -4.9954470091611712e-02 -2.4836844633457237e-03 0.0000000000000000e+00  -4.9358278369964918e-02 -7.6213024031590417e-03 0.0000000000000000e+00  -3.2034990437136937e-02 -7.3912819264842656e-03 0.0000000000000000e+00  -1.5606184660812998e-02 -7.2874451867462045e-03 0.0000000000000000e+00  3.8126880904270618e-04 -7.3043921731650568e-03 0.0000000000000000e+00  1.6367363202368562e-02 -7.4418883835776174e-03 0.0000000000000000e+00  3.2791953451346903e-02 -7.7050210711998796e-03 0.0000000000000000e+00  5.0107278314281793e-02 -8.1042644648850089e-03 0.0000000000000000e+00  5.0685832744195136e-02 -2.9059714480202128e-03 0.0000000000000000e+00  5.0064954420523188e-02 2.2946918150080460e-03 0.0000000000000000e+00  3.6416329791795467e-02 1.6057586611628977e-03 0.0000000000000000e+00  2.3747179349522782e-02 1.0170609512432148e-03 0.0000000000000000e+00  1.1716256041470401e-02 4.9278007917773832e-04 0.0000000000000000e+00  0.0000000000000000e+00 0.0000000000000000e+00 0.0000000000000000e+00  0.0000000000000000e+00 0.0000000000000000e+00 0.0000000000000000e+00  -8.4528251493588800e-03 1.0995436854854988e-03 0.0000000000000000e+00  -1.7136518768085963e-02 2.2477726073179506e-03 0.0000000000000000e+00  -2.6288504195994565e-02 3.4948580208907800e-03 0.0000000000000000e+00  -3.6157074577854144e-02 4.8940480842208185e-03 0.0000000000000000e+00  -3.6606951602293138e-02 -2.5545647193251668e-03 0.0000000000000000e+00  -3.6175556632030370e-02 -1.0007766837152696e-02 0.0000000000000000e+00  -2.3459719602213252e-02 -9.6053044800624553e-03 0.0000000000000000e+00  -1.1400037755158523e-02 -9.3911187569413399e-03 0.0000000000000000e+00  3.3420651426890467e-04 -9.3582736132990941e-03 0.0000000000000000e+00  1.2064983898420787e-02 -9.5056326933771768e-03 0.0000000000000000e+00  2.4114058195956453e-02 -9.8376376181194877e-03 0.0000000000000000e+00  3.6811770847964900e-02 -1.0364617580692296e-02 0.0000000000000000e+00  3.7215214223150050e-02 -2.8646962327615821e-03 0.0000000000000000e+00  3.6746052646694317e-02 4.6361639592395198e-03 0.0000000000000000e+00  2.6738113415309801e-02 3.3070552874172846e-03 0.0000000000000000e+00  1.7440253400016176e-02 2.1252366257220319e-03 0.0000000000000000e+00  8.6058326998495974e-03 1.0390722138139156e-03 0.0000000000000000e+00  0.0000000000000000e+00 0.0000000000000000e+00 0.0000000000000000e+00  0.0000000000000000e+00 0.0000000000000000e+00 0.0000000000000000e+00  -4.4398573847111234e-03 1.4293435655489371e-03 0.0000000000000000e+00  -9.0007908053535701e-03 2.9159965060369750e-03 0.0000000000000000e+00  -1.3807618867736488e-02 4.5188075755153790e-03 0.0000000000000000e+00  -1.8990918066670102e-02 6.2997623180207673e-03 0.0000000000000000e+00  -1.9237761035717171e-02 -2.6452519573527422e-03 0.0000000000000000e+00  -1.9017892590518889e-02 -1.1592778514677327e-02 0.0000000000000000e+00  -1.2284915626639064e-02 -1.1068916703135923e-02 0.0000000000000000e+00  -5.9034776789307596e-03 -1.0772091706599065e-02 0.0000000000000000e+00  3.0220496675060880e-04 -1.0694294094929474e-02 0.0000000000000000e+00  6.5030623087282769e-03 -1.0833385774698442e-02 0.0000000000000000e+00  1.2869857086277131e-02 -1.1193206973062095e-02 0.0000000000000000e+00  1.9577689772286078e-02 -1.1783614602467947e-02 0.0000000000000000e+00  1.9763369689721078e-02 -2.8101815966600089e-03 0.0000000000000000e+00 