<?xml version="1.0"?>
<VTKFile type="UnstructuredGrid"  version="0.1"  >
<UnstructuredGrid>
<Piece  NumberOfPoints="589" NumberOfCells="1080">
<Points>
<DataArray  type="Float64"  NumberOfComponents="3"  format="ascii">-9 0 0  -8 0 0  -7 0 0  -6 0 0  -5 0 0  -4 0 0  -3 0 0  -2 0 0  -1 0 0  0 0 0  1 0 0  2 0 0  3 0 0  4 0 0  5 0 0  6 0 0  7 0 0  8 0 0  9 0 0  -9 2 0  -8.000001834494284 1.999997736202012 0  -7.000003880359036 1.999995688112034 0  -6.000006546847183 1.999994023263981 0  -5.000010696585234 1.999992790407782 0  -4.000007049592736 1.999994786197726 0  -3.000003150119417 1.999996343685467 0  -2.000001021946136 1.999997659111048 0  -1.000000197099364 1.999998688058342 0  -1.824563997355547e-07 1.999999138320443 0  0.9999997651688431 1.999998846495048 0  2.000000360295695 1.999997882273529 0  3.000002097870066 1.999996665575797 0  4.000005156440973 1.99999529522719 0  5.00000944211437 1.999994571167201 0  6.000005720270391 1.999995018650356 0  7.000003372187843 1.999996246521377 0  8.000001591803954 1.999997992510836 0  9 2 0  -9 4 0  -8.000002823496983 3.999994609598671 0  -7.000005278220259 3.99998984327755 0  -6.000007160682649 3.999986318572449 0  -5.000008537747707 3.999984639086962 0  -4.000003610587783 3.999985409577552 0  -3.000000065862445 3.999989276098971 0  -1.999998614281554 3.999994295970708 0  -0.9999989810129504 3.999998293553603 0  -3.645659071882502e-07 3.99999991895251 0  0.9999981980622984 3.999998722167018 0  1.999997656944326 3.999995397251853 0  2.999998950742913 3.999990862863518 0  4.000002328865696 3.999986299549391 0  5.000007006039981 3.99998469802939 0  6.00000594547279 3.999986915765735 0  7.000004473567505 3.999990420596224 0  8.000002429274256 3.999994939050883 0  9 4 0  -9 6 0  -8.00000528756752 5.999988986784286 0  -7.000008965127879 5.999979032077158 0  -6.000009796122021 5.999971233089306 0  -5.000007413424187 5.999966660746254 0  -3.999998454985726 5.999972170308865 0  -2.999994043782178 5.999983713821663 0  -1.999994872116993 5.999995810893903 0  -0.9999979384041983 6.000002577247228 0  -1.058395165423673e-06 6.000004003345929 0  0.9999962238146671 6.000001839009212 0  1.999994344221037 5.999995859451742 0  2.999994037027755 5.99998582331458 0  3.999996592707443 5.999975440792777 0  5.000004234672779 5.999970391218937 0  6.000007816037865 5.999973664588449 0  7.00000786447835 5.999980540276044 0  8.000004806630017 5.999989715713572 0  9 6 0  -9 8 0  -8.00001419180567 7.999979130401153 0  -7.000024038150713 7.99995959849347 0  -6.00002528628074 7.999943241502955 0  -5.00001419116623 7.999933125211329 0  -3.999997695584895 7.999958311368751 0  -2.999999976688634 7.999987924629673 0  -2.000005381555313 8.00000251045914 0  -1.000005309342771 8.0000044077157 0  -1.192516071775183e-06 8.000004969394993 0  1.000002077106014 8.000006278672828 0  2.000001532913466 8.000000251010455 0  2.999995294331902 7.999989807881063 0  3.999993855163045 7.999964695342021 0  5.000010166326404 7.999936539570609 0  6.000023817996247 7.999946004782487 0  7.000023680182877 7.999961461457545 0  8.000014178789398 7.999980057371876 0  9 8 0  -9 10 0  -8.000040475711669 9.999963925037376 0  -7.000073501635852 9.999927467973009 0  -6.000090147181824 9.99989029161067 0  -5.000077904874984 9.999852159437854 0  -4.000052356835017 9.999931994647188 0  -3.000055191252584 10.00000089457982 0  -2.000043681798632 9.999989920730902 0  -1.000020682635557 9.999986402460532 0  -3.492149148005107e-06 9.999985558284163 0  1.000013544523875 9.999985558401441 0  2.000035798008532 9.99998491717977 0  3.000056158357644 10.0000083192951 0  4.000055096916105 9.999943672774531 0  5.000083572354161 9.99985898786503 0  6.000094973436056 9.999894382603397 0  7.000076947396999 9.999929827660891 0  8.000042258654155 9.9999650134597 0  9 10 0  -9 12 0  -8.000096549008466 11.99995025173441 0  -7.000188470819011 11.99989822073777 0  -6.000270529231996 11.99984117539716 0  -5.000336262909383 11.9997753031237 0  -4.000323684424054 11.99991847554169 0  -3.000334338544483 12.00006025028603 0  -2.00022958822854 12.00004298120581 0  -1.000114455629588 12.00003357140571 0  4.585063035414385e-06 12.00003154973814 0  1.000124907547115 12.0000371810007 0  2.000244410390791 12.00005219757118 0  3.00035855661846 12.00008097721605 0  4.000347730115935 11.99992936119098 0  5.000355508560809 11.99977661333648 0  6.000283816086093 11.99984256697102 0  7.000196854656536 11.99989923577422 0  8.000100611442278 11.99995076963765 0  9 12 0  -9 14 0  -8.000171111385921 13.9999457133516 0  -7.000342862257845 13.99988903775838 0  -6.000516156909734 13.99982737689504 0  -5.000692601560369 13.99975773265503 0  -4.000694619239136 13.99992221268289 0  -3.000694535577276 14.00008886998793 0  -2.00045706081726 14.00006461225977 0  -1.000223877589439 14.00005119443135 0  7.538964405770275e-06 14.00004693547488 0  1.000239576654242 14.00005126971003 0  2.000474502047722 14.00006443637671 0  3.000714282201966 14.00008717121633 0  4.000717443497765 13.99992264370697 0  5.000718141619855 13.99975923887654 0  6.000533687626206 13.99982790604598 0  7.000353861520107 13.99988919281033 0  8.000176419882928 13.99994574483482 0  9 14 0  -9 16 0  -8.00024308940368 15.99995073326755 0  -7.000491035268669 15.99989980121326 0  -6.000749115088122 15.99984551989963 0  -5.001023492985603 15.99978620283273 0  -4.001033219910888 15.99992364191466 0  -3.001023282789679 16.00006028709045 0  -2.000667435139748 16.00004290471385 0  -1.000326262966848 16.00003219876552 0  8.008731726988848e-06 16.00002796352739 0  1.000342725354977 16.00003004348285 0  2.000685239478833 16.00003841721894 0  3.001043385150109 16.0000531593053 0  4.00105453342608 15.99991767560276 0  5.001045452313684 15.99978207848156 0  6.000764970199584 15.99984277630369 0  7.000501283591377 15.999898095606 0  8.000248113279376 15.99994991104339 0  9 16 0  -9 18 0  -8.0002956148503 17.99996241495236 0  -7.000598623062258 17.9999239640523 0  -6.00091680274062 17.99988380967334 0  -5.0012587079682 17.99984117955886 0  -4.001273023320373 17.9999232869334 0  -3.001258714617539 18.00000528111139 0  -2.000819192095286 17.99999450725897 0  -1.000401086326418 17.99998733701541 0  6.696788964278765e-06 17.99998374739652 0  1.000414719269266 17.99998365828832 0  2.000833528610107 17.9999869399604 0  3.00127416754162 17.99999339058202 0  4.001289289142132 17.99991383898188 0  5.001275372126753 17.9998345478165 0  6.000928984898293 17.99987916619321 0  7.000606586545948 17.99992101728039 0  8.000299547711457 17.99996098431411 0  9 18 0  -9 20 0  -8.000318542030991 19.99997755936464 0  -7.000645476130573 19.99995494098919 0  -6.000989508008995 19.99993200294499 0  -5.001359970973845 19.99990867642095 0  -4.001375980463391 19.99992242830828 0  -3.001359849427806 19.99993608153529 0  -2.000885374916693 19.99993170617567 0  -1.000434662719154 19.99992816433765 0  4.425333027016304e-06 19.99992554060052 0  1.000443605443963 19.99992380087235 0  2.000894586089108 19.99992279671558 0  3.001369483869717 19.99992225719907 0  4.001385861594543 19.9999116230342 0  5.001370019244767 19.99990117535289 0  6.000996958337209 19.99992662612112 0  7.000650399194915 19.999951475464 0  8.000320989759498 19.99997586225893 0  8.999999999997714 20.0000000000042 0  -9 22 0  -8.000307878635795 21.9999934139573 0  -7.000623890704123 21.99998719599822 0  -6.000956409829305 21.9999817494821 0  -5.001314288325742 21.99997754883064 0  -4.00132968958705 21.99992103017784 0  -3.001314200028192 21.99986442775214 0  -2.000856600551378 21.99986557357261 0  -1.000421786170929 21.99986532233417 0  1.785482991040302e-06 21.99986380088134 0  1.000425332527976 21.9998610038819 0  2.000860066393491 21.99985679670603 0  3.001317509587718 21.99985091363808 0  4.001332840802329 21.99991053079227 0  5.001317381084966 21.99997027703107 0  6.0009588442307 21.99997649075723 0  7.000625564804615 21.99998378289621 0  8.000308730272035 21.99999173520588 0  9 22 0  -9 24 0  -8.000264659374304 24.0000077959098 0  -7.000536229887524 24.00001636476076 0  -6.000821795735757 24.00002651174673 0  -5.001128782714979 24.00003910671876 0  -4.001141868068141 23.99991929132544 0  -3.001128823812735 23.99979942390755 0  -2.00073677351772 23.99980502460626 0  -1.000363979301838 23.99980755688356 0  -7.538177088850106e-07 23.99980715902333 0  1.000362357305679 23.99980384295644 0  2.00073480216834 23.99979749495952 0  3.001126249357759 23.99978787543772 0  4.001138823850233 23.99991036963463 0  5.001125534098313 24.00003296550795 0  6.000819624664634 24.00002204072994 0  7.000534905831803 24.00001344888518 0  8.000264033525429 24.00000635752104 0  9 24 0  -9 26 0  -8.000193770747803 26.00001908627795 0  -7.000392539796642 26.00003922089869 0  -6.000601417557406 26.00006148158268 0  -5.000825734341799 26.00008700480904 0  -4.000835285506538 25.99991739033749 0  -3.000825985092907 25.9997477512148 0  -2.000540006520254 25.99975674144919 0  -1.000267935519598 25.99976150359571 0  -2.832130053801898e-06 25.99976218150166 0  1.000262092544355 25.99975880099223 0  2.000533620673299 25.99975127007668 0  3.000818673941307 25.99973937920482 0  4.000827289183739 25.99991095051347 0  5.000817434441808 26.00008259519253 0  6.000595568239691 26.00005825870583 0  7.000388815756488 26.00003711291824 0  8.000191960624274 26.00001804455087 0  9 26 0  -9 28 0  -8.000102861080046 28.00002618360492 0  -7.000208363155414 28.0000535728751 0  -6.000319203777049 28.0000834009812 0  -5.000438188236449 28.00011695589295 0  -4.000443428487773 27.99991549057333 0  -3.000438711264086 27.9997140280732 0  -2.00028769079798 27.99972536211335 0  -1.000144058667391 27.99973177876341 0  -4.1911584919872e-06 27.99973342889138 0  1.000135458258912 27.99973035204224 0  2.000278429665117 27.99972247601533 0  3.000428327927955 27.99970961748284 0  4.000432233510033 27.99991211012565 0  5.000426634094113 28.00011465342217 0  6.000310980643195 28.00008171435325 0  7.000203088556145 28.00005246783986 0  8.000100285319984 28.0000
[...]
<PointData  Vectors="f_44-2"> 
<DataArray  type="Float64"  Name="f_44-2"  NumberOfComponents="3" format="ascii">0.0000000000000000e+00 0.0000000000000000e+00 0.0000000000000000e+00  0.0000000000000000e+00 0.0000000000000000e+00 0.0000000000000000e+00  0.0000000000000000e+00 0.0000000000000000e+00 0.0000000000000000e+00  0.0000000000000000e+00 0.0000000000000000e+00 0.0000000000000000e+00  0.0000000000000000e+00 0.0000000000000000e+00 0.0000000000000000e+00  0.0000000000000000e+00 0.0000000000000000e+00 0.0000000000000000e+00  0.0000000000000000e+00 0.0000000000000000e+00 0.0000000000000000e+00  0.0000000000000000e+00 0.0000000000000000e+00 0.0000000000000000e+00  0.0000000000000000e+00 0.0000000000000000e+00 0.0000000000000000e+00  0.0000000000000000e+00 0.0000000000000000e+00 0.0000000000000000e+00  0.0000000000000000e+00 0.0000000000000000e+00 0.0000000000000000e+00  0.0000000000000000e+00 0.0000000000000000e+00 0.0000000000000000e+00  0.0000000000000000e+00 0.0000000000000000e+00 0.0000000000000000e+00  0.0000000000000000e+00 0.0000000000000000e+00 0.0000000000000000e+00  0.0000000000000000e+00 0.0000000000000000e+00 0.0000000000000000e+00  0.0000000000000000e+00 0.0000000000000000e+00 0.0000000000000000e+00  0.0000000000000000e+00 0.0000000000000000e+00 0.0000000000000000e+00  0.0000000000000000e+00 0.0000000000000000e+00 0.0000000000000000e+00  0.0000000000000000e+00 0.0000000000000000e+00 0.0000000000000000e+00  0.0000000000000000e+00 0.0000000000000000e+00 0.0000000000000000e+00  -3.3532637281103550e-05 -5.1553020188200476e-05 0.0000000000000000e+00  -7.0076698184491068e-05 -9.6515196909647367e-05 0.0000000000000000e+00  -1.1716937964397335e-04 -1.2950248086983108e-04 0.0000000000000000e+00  -1.9242513262508878e-04 -1.4804717252729819e-04 0.0000000000000000e+00  -1.1159457701218703e-04 -1.1111213735480670e-04 0.0000000000000000e+00  -2.9222368662790809e-05 -7.4896996972787809e-05 0.0000000000000000e+00  1.0093278903320337e-05 -4.0367307222085752e-05 0.0000000000000000e+00  1.4897256146387636e-05 -1.2991968094340002e-05 0.0000000000000000e+00  -1.9299511304109407e-06 -8.2989777099231291e-07 0.0000000000000000e+00  -2.0470611093322465e-05 -8.8109272963776138e-06 0.0000000000000000e+00  -2.1420239688997577e-05 -3.4837988262648879e-05 0.0000000000000000e+00  8.0377874758229661e-06 -6.6481067858927139e-05 0.0000000000000000e+00  7.1541742607725270e-05 -9.9525593784110660e-05 0.0000000000000000e+00  1.6377655303314329e-04 -1.1065105338258879e-04 0.0000000000000000e+00  9.8054053447649254e-05 -1.0791135816439357e-04 0.0000000000000000e+00  5.8232420797711530e-05 -8.3982589647113861e-05 0.0000000000000000e+00  2.7854628695919585e-05 -4.5663396714313303e-05 0.0000000000000000e+00  0.0000000000000000e+00 0.0000000000000000e+00 0.0000000000000000e+00  0.0000000000000000e+00 0.0000000000000000e+00 0.0000000000000000e+00  -5.5019207607825275e-05 -1.2946812104681468e-04 0.0000000000000000e+00  -9.7958883669007366e-05 -2.4092898423322081e-04 0.0000000000000000e+00  -1.2168620523865653e-04 -3.1677481957958711e-04 0.0000000000000000e+00  -1.2752647329875429e-04 -3.4029771050399086e-04 0.0000000000000000e+00  -8.6241568622076331e-06 -3.2180041767067416e-04 0.0000000000000000e+00  7.0176458523651204e-05 -2.1774064967501432e-04 0.0000000000000000e+00  8.8779048727249854e-05 -8.2498018497126664e-05 0.0000000000000000e+00  5.5147246001120840e-05 2.6539420209432251e-05 0.0000000000000000e+00  -6.8340067053010798e-06 7.0845983877549856e-05 0.0000000000000000e+00  -7.0160555834749639e-05 3.7452019050062275e-05 0.0000000000000000e+00  -1.0844642537999860e-04 -5.3565494638059366e-05 0.0000000000000000e+00  -9.5320657203208875e-05 -1.7650955575522834e-04 0.0000000000000000e+00  -2.2645433167449217e-05 -2.9928852959252959e-04 0.0000000000000000e+00  9.0858159149303358e-05 -3.3736558913275452e-04 0.0000000000000000e+00  9.2504133697602367e-05 -3.0057824124684094e-04 0.0000000000000000e+00  7.8689068687891439e-05 -2.2552557149191899e-04 0.0000000000000000e+00  4.5616048945672214e-05 -1.2070224552097941e-04 0.0000000000000000e+00  0.0000000000000000e+00 0.0000000000000000e+00 0.0000000000000000e+00  0.0000000000000000e+00 0.0000000000000000e+00 0.0000000000000000e+00  -1.2482241180706679e-04 -2.7940636425831047e-04 0.0000000000000000e+00  -2.0269050409789008e-04 -5.2779753093904196e-04 0.0000000000000000e+00  -1.9775163511459438e-04 -7.1333398560741472e-04 0.0000000000000000e+00  -9.9834592544398036e-05 -8.0563246702794195e-04 0.0000000000000000e+00  1.3433904397547515e-04 -6.5005418130177075e-04 0.0000000000000000e+00  2.3941303655235176e-04 -3.2669863948602755e-04 0.0000000000000000e+00  1.9389408942459833e-04 1.2012280444115782e-05 0.0000000000000000e+00  8.4958214246313570e-05 2.0006228967197438e-04 0.0000000000000000e+00  -2.4958677045567668e-05 2.3803020279912639e-04 0.0000000000000000e+00  -1.2383697997512196e-04 1.7815863368528207e-04 0.0000000000000000e+00  -1.9981556734400380e-04 1.1800926451214663e-05 0.0000000000000000e+00  -2.3001084098268394e-04 -2.6942250304135072e-04 0.0000000000000000e+00  -1.7726695330501767e-04 -5.6037042097328263e-04 0.0000000000000000e+00  2.0199090454885062e-05 -7.0298907158874318e-04 0.0000000000000000e+00  1.4879851515398363e-04 -6.4630169413305708e-04 0.0000000000000000e+00  1.7617619321222931e-04 -4.8614563922540969e-04 0.0000000000000000e+00  1.1354741872457517e-04 -2.5925141764459675e-04 0.0000000000000000e+00  0.0000000000000000e+00 0.0000000000000000e+00 0.0000000000000000e+00  0.0000000000000000e+00 0.0000000000000000e+00 0.0000000000000000e+00  -3.8260286397030980e-04 -5.5337915388340624e-04 0.0000000000000000e+00  -6.3864065909930367e-04 -1.0660569106202295e-03 0.0000000000000000e+00  -6.4572442904932989e-04 -1.4828177430188537e-03 0.0000000000000000e+00  -2.9992019658846492e-04 -1.7128665366058951e-03 0.0000000000000000e+00  1.5733339267185391e-04 -9.9695686150100293e-04 0.0000000000000000e+00  6.8804460687661793e-05 -1.5571125654923823e-04 0.0000000000000000e+00  -1.0737943442143897e-04 2.5321841078403844e-04 0.0000000000000000e+00  -1.2582450950193133e-04 2.9814655847962480e-04 0.0000000000000000e+00  -2.6590383589461286e-05 3.1096686699137879e-04 0.0000000000000000e+00  4.7224039790578778e-05 3.5210681275009924e-04 0.0000000000000000e+00  1.4143186376492456e-05 1.8359255489135666e-04 0.0000000000000000e+00  -1.8576367619138387e-04 -1.0255046108886866e-04 0.0000000000000000e+00  -2.5549391396958489e-04 -8.1526540037358207e-04 0.0000000000000000e+00  1.8872444468707761e-04 -1.6196812858419287e-03 0.0000000000000000e+00  6.0996124089187308e-04 -1.4058624751324702e-03 0.0000000000000000e+00  6.3366741962217455e-04 -1.0136896252752213e-03 0.0000000000000000e+00  3.8513448341629113e-04 -5.2720738960272922e-04 0.0000000000000000e+00  0.0000000000000000e+00 0.0000000000000000e+00 0.0000000000000000e+00  0.0000000000000000e+00 0.0000000000000000e+00 0.0000000000000000e+00  -1.1465151159510305e-03 -9.9005328082252091e-04 0.0000000000000000e+00  -2.0701443186519155e-03 -1.9878233745869831e-03 0.0000000000000000e+00  -2.5051184745819299e-03 -2.9988851729956688e-03 0.0000000000000000e+00  -2.0821678845230128e-03 -4.0238379093646666e-03 0.0000000000000000e+00  -1.3526306851379111e-03 -1.7027885069298551e-03 0.0000000000000000e+00  -1.4796836979335437e-03 2.9270771205269623e-04 0.0000000000000000e+00  -1.1925817419508945e-03 -5.6082594306905557e-05 0.0000000000000000e+00  -5.5721770578930486e-04 -1.6791258091117690e-04 0.0000000000000000e+00  -9.1569483114564091e-05 -1.9515411694679655e-04 0.0000000000000000e+00  3.6945032548570589e-04 -1.9262911169871925e-04 0.0000000000000000e+00  9.8361674184848811e-04 -2.0329742500131598e-04 0.0000000000000000e+00  1.5215308363360910e-03 5.1012267095601959e-04 0.0000000000000000e+00  1.4503917916791665e-03 -1.3578959313590713e-03 0.0000000000000000e+00  2.2710558105463450e-03 -3.8237201882429950e-03 0.0000000000000000e+00  2.6609792271405082e-03 -2.8786324958041056e-03 0.0000000000000000e+00  2.1799473541916671e-03 -1.9183547994974567e-03 0.0000000000000000e+00  1.2030167452363413e-03 -9.5798955202126075e-04 0.0000000000000000e+00  0.0000000000000000e+00 0.0000000000000000e+00 0.0000000000000000e+00  0.0000000000000000e+00 0.0000000000000000e+00 0.0000000000000000e+00  -2.8013829159556588e-03 -1.3956410352707752e-03 0.0000000000000000e+00  -5.4553114132787697e-03 -2.8560551078701969e-03 0.0000000000000000e+00  -7.7947999875618394e-03 -4.4586852521871683e-03 0.0000000000000000e+00  -9.6130126118958107e-03 -6.3115707429514918e-03 0.0000000000000000e+00  -9.2329158887653247e-03 -2.0608406184962065e-03 0.0000000000000000e+00  -9.5746285693140056e-03 2.1486374540222275e-03 0.0000000000000000e+00  -6.6117915399983851e-03 1.6373471103732524e-03 0.0000000000000000e+00  -3.2999663650412751e-03 1.3573306859669702e-03 0.0000000000000000e+00  1.4596489832608754e-04 1.2974308277521518e-03 0.0000000000000000e+00  3.6289005064312286e-03 1.4661590719505031e-03 0.0000000000000000e+00  7.0670142894839853e-03 1.9136442520786235e-03 0.0000000000000000e+00  1.0301515781306727e-02 2.7655603840386982e-03 0.0000000000000000e+00  9.9452756842425289e-03 -1.7298904172778223e-03 0.0000000000000000e+00  1.0186000665053962e-02 -6.2617329010028113e-03 0.0000000000000000e+00  8.1945162910939586e-03 -4.4116918382479959e-03 0.0000000000000000e+00  5.7091707234938434e-03 -2.8230792935985778e-03 0.0000000000000000e+00  2.9248416919264251e-03 -1.3790878475122305e-03 0.0000000000000000e+00  0.0000000000000000e+00 0.0000000000000000e+00 0.0000000000000000e+00  0.0000000000000000e+00 0.0000000000000000e+00 0.0000000000000000e+00  -5.0448638038229016e-03 -1.5418919268716188e-03 0.0000000000000000e+00  -1.0096316148405452e-02 -3.1550000814997794e-03 0.0000000000000000e+00  -1.5166305618353930e-02 -4.9168488990149429e-03 0.0000000000000000e+00  -2.0284165801595429e-02 -6.9173323540405876e-03 0.0000000000000000e+00  -2.0328785636330209e-02 -1.9226515957409982e-03 0.0000000000000000e+00  -2.0363958587859360e-02 3.1348378643933526e-03 0.0000000000000000e+00  -1.3429214667488434e-02 2.4061387568991574e-03 0.0000000000000000e+00  -6.5801481961137703e-03 2.0025071490983931e-03 0.0000000000000000e+00  2.3572784617248497e-04 1.8758673609255423e-03 0.0000000000000000e+00  7.0693395891774586e-03 2.0103639976528282e-03 0.0000000000000000e+00  1.3968120195422148e-02 2.4135049857468378e-03 0.0000000000000000e+00  2.0968488541277117e-02 3.1073350216331728e-03 0.0000000000000000e+00  2.1024425635710636e-02 -1.8956771760008971e-03 0.0000000000000000e+00  2.1059619783017833e-02 -6.8676993884627408e-03 0.0000000000000000e+00  1.5700647701714476e-02 -4.8981040834526765e-03 0.0000000000000000e+00  1.0432655714990391e-02 -3.1487626721010843e-03 0.0000000000000000e+00  5.2076741792461230e-03 -1.5402671726047052e-03 0.0000000000000000e+00  0.0000000000000000e+00 0.0000000000000000e+00 0.0000000000000000e+00  0.0000000000000000e+00 0.0000000000000000e+00 0.0000000000000000e+00  -7.2603564344575384e-03 -1.4031182830297438e-03 0.0000000000000000e+00  -1.4660489303705089e-02 -2.8586445084230068e-03 0.0000000000000000e+00  -2.2342016462331901e-02 -4.4199676386160571e-03 0.0000000000000000e+00  -3.0479756113288958e-02 -6.1415130637247706e-03 0.0000000000000000e+00  -3.0762439897747539e-02 -1.8474992278570690e-03 0.0000000000000000e+00  -3.0493578902180671e-02 2.4238647949662560e-03 0.0000000000000000e+00  -1.9908121348472561e-02 1.8759606562978068e-03 0.0000000000000000e+00  -9.7294249479321290e-03 1.5407598262602751e-03 0.0000000000000000e+00  2.5458264973654560e-04 1.4106971099829143e-03 0.0000000000000000e+00  1.0251031810970675e-02 1.4809181827157565e-03 0.0000000000000000e+00  2.0466912449880914e-02 1.7515276749111559e-03 0.0000000000000000e+00  3.1122203243725534e-02 2.2265618328765396e-03 0.0000000000000000e+00  3.1428049190072846e-02 -2.0172276234502228e-03 0.0000000000000000e+00  3.1165615437127338e-02 -6.2647152454793275e-03 0.0000000000000000e+00  2.2838088199290958e-02 -4.5028905687215411e-03 0.0000000000000000e+00  1.4981209600003384e-02 -2.9106325116382290e-03 0.0000000000000000e+00  7.4195464206327994e-03 -1.4283072208056571e-03 0.0000000000000000e+00  0.0000000000000000e+00 0.0000000000000000e+00 0.0000000000000000e+00  0.0000000000000000e+00 0.0000000000000000e+00 0.0000000000000000e+00  -8.9317947536805050e-03 -1.0546756310716888e-03 0.0000000000000000e+00  -1.8084075795871454e-02 -2.1389419473151388e-03 0.0000000000000000e+00  -2.7687970484736261e-02 -3.2819407808014232e-03 0.0000000000000000e+00  -3.7998171402479478e-02 -4.5116893788203060e-03 0.0000000000000000e+00  -3.8432342295659429e-02 -1.8250757002188278e-03 0.0000000000000000e+00  -3.8013791471364251e-02 8.5771490235451889e-04 0.0000000000000000e+00  -2.4739136210090180e-02 4.9611280714121763e-04 0.0000000000000000e+00  -1.2102451040553694e-02 2.5953893995096956e-04 0.0000000000000000e+00  2.2354533886175819e-04 1.4545795306857880e-04 0.0000000000000000e+00  1.2557210072666794e-02 1.5095883699282108e-04 0.0000000000000000e+00  2.5212933319842781e-02 2.7284377782325138e-04 0.0000000000000000e+00  3.8520107802997958e-02 5.0704191487435299e-04 0.0000000000000000e+00  3.8964886356310340e-02 -2.1106233224375344e-03 0.0000000000000000e+00  3.8544369856841114e-02 -4.7210631268938593e-03 0.0000000000000000e+00  2.8087616169862079e-02 -3.4290355050014226e-03 0.0000000000000000e+00  1.8345524149579913e-02 -2.2325406215466274e-03 0.0000000000000000e+00  9.0610231109429472e-03 -1.1001940774434244e-03 0.0000000000000000e+00  0.0000000000000000e+00 0.0000000000000000e+00 0.0000000000000000e+00  0.0000000000000000e+00 0.0000000000000000e+00 0.0000000000000000e+00  -9.7197139595396435e-03 -5.8790353583186312e-04 0.0000000000000000e+00  -1.9698106117422627e-02 -1.1842808176462263e-03 0.0000000000000000e+00  -3.0203763374737076e-02 -1.7967995281158464e-03 0.0000000000000000e+00  -4.1525307063115725e-02 -2.4314912259007617e-03 0.0000000000000000e+00  -4.2024717747814501e-02 -1.8211974550221377e-03 0.0000000000000000e+00  -4.1532031651222240e-02 -1.2146720677876774e-03 0.0000000000000000e+00  -2.7024150929649344e-02 -1.3831077240901422e-03 0.0000000000000000e+00  -1.3251423927066432e-02 -1.5109795046212404e-03 0.0000000000000000e+00  1.6170168302867102e-04 -1.5973425875653565e-03 0.0000000000000000e+00  1.3577690567583475e-02 -1.6437991187559528e-03 0.0000000000000000e+00  2.7358666596988507e-02 -1.6544173868691036e-03 0.0000000000000000e+00  4.1879912495551820e-02 -1.6359653658740386e-03 0.0000000000000000e+00  4.2381913629110479e-02 -2.1593032002844284e-03 0.0000000000000000e+00  4.1888724327490620e-02 -2.6773343969116116e-03 0.0000000000000000e+00  3.0473029494223317e-02 -1.9729623722373837e-03 0.0000000000000000e+00  1.9875977703731385e-02 -1.2978169312138322e-03 0.0000000000000000e+00  9.8081356634959101e-03 -6.4350495305827199e-04 0.0000000000000000e+00  -5.1279212462247663e-10 0.0000000000000000e+00 0.0000000000000000e+00  0.0000000000000000e+00 0.0000000000000000e+00 0.0000000000000000e+00  -9.4714836355173845e-03 -8.7274925554535281e-05 0.0000000000000000e+00  -1.9200023658959502e-02 -1.6507442865368343e-04 0.0000000000000000e+00  -2.9450909573633801e-02 -2.2298089275491997e-04 0.0000000000000000e+00  -4.0505764049458520e-02 -2.4867526279166030e-04 0.0000000000000000e+00  -4.0996503118642155e-02 -1.8393092124418190e-03 0.0000000000000000e+00  -4.0508239095667593e-02 -3.4336022320963474e-03 0.0000000000000000e+00  -2.6374412371557122e-02 -3.4243631890815878e-03 0.0000000000000000e+00  -1.2964668112058712e-02 -3.4472851014754860e-03 0.0000000000000000e+00  8.8386589643441336e-05 -3.4995221157931391e-03 0.0000000000000000e+00  1.3140987319212778e-02 -3.5816866866128796e-03 0.0000000000000000e+00  2.6549205991518211e-02 -3.6977886415112504e-03 0.0000000000000000e+00  4.0679964891106826e-02 -3.8553044222996292e-03 0.0000000000000000e+00  4.1164635357710609e-02 -2.1764861744607632e-03 0.0000000000000000e+00  4.0672542115953621e-02 -4.9403679252118702e-04 0.0000000000000000e+00  2.9578622136682796e-02 -4.0001864735698950e-04 0.0000000000000000e+00  1.9286320459368171e-02 -2.7980137670595412e-04 0.0000000000000000e+00  9.5149438408886674e-03 -1.4365294134996602e-04 0.0000000000000000e+00  0.0000000000000000e+00 0.0000000000000000e+00 0.0000000000000000e+00  0.0000000000000000e+00 0.0000000000000000e+00 0.0000000000000000e+00  -8.1935751165883256e-03 3.7544384277457212e-04 0.0000000000000000e+00  -1.6609474857081967e-02 7.7454558785357112e-04 0.0000000000000000e+00  -2.5477055315058259e-02 1.2219599599553876e-03 0.0000000000000000e+00  -3.5037376917738325e-02 1.7443570776746284e-03 0.0000000000000000e+00  -3.5460373778625209e-02 -1.8754551557579277e-03 0.0000000000000000e+00  -3.5038669307527498e-02 -5.4981369222296345e-03 0.0000000000000000e+00  -2.2834063954442856e-02 -5.3372318482928036e-03 0.0000000000000000e+00  -1.1253776897601951e-02 -5.2665726821519701e-03 0.0000000000000000e+00  1.7019774774099204e-05 -5.2822364598538079e-03 0.0000000000000000e+00  1.1284733655735931e-02 -5.3840886571922559e-03 0.0000000000000000e+00  2.2855622131314215e-02 -5.5758069140466535e-03 0.0000000000000000e+00  3.5044159084260083e-02 -5.8649069877899614e-03 0.0000000000000000e+00  3.5451823278441721e-02 -2.1677179519777184e-03 0.0000000000000000e+00  3.5022020705421160e-02 1.5322019352790894e-03 0.0000000000000000e+00  2.5472761952806875e-02 1.0680846280286724e-03 0.0000000000000000e+00  1.6610012490782391e-02 6.7445549616164998e-04 0.0000000000000000e+00  8.1946869969308968e-03 3.2614656453342541e-04 0.0000000000000000e+00  0.0000000000000000e+00 0.0000000000000000e+00 0.0000000000000000e+00  0.0000000000000000e+00 0.0000000000000000e+00 0.0000000000000000e+00  -6.0235494769142689e-03 7.4355264663641171e-04 0.0000000000000000e+00  -1.2210087437425868e-02 1.5209220605375245e-03 0.0000000000000000e+00  -1.8726974453090933e-02 2.3669544136653464e-03 0.0000000000000000e+00  -2.5749703623519405e-02 3.3185587034899409e-03 0.0000000000000000e+00  -2.6059944274098520e-02 -1.9250980376724254e-03 0.0000000000000000e+00  -2.5752425707191849e-02 -7.1707375041364582e-03 0.0000000000000000e+00  -1.6801227423131563e-02 -6.8894926635033509e-03 0.0000000000000000e+00  -8.3074121780690926e-03 -6.7410992320833868e-03 0.0000000000000000e+00  -4.1783557277827972e-05 -6.7207354577649243e-03 0.0000000000000000e+00  8.2187564355059931e-03 -6.8275813850963213e-03 0.0000000000000000e+00  1.6697480384400380e-02 -7.0648813096733168e-03 0.0000000000000000e+00  2.5622772052990843e-02 -7.4398918481761740e-03 0.0000000000000000e+00  2.5908692542878899e-02 -2.1390300070706176e-03 0.0000000000000000e+00  2.5587682943934903e-02 3.1636107458249832e-03 0.0000000000000000e+00  1.8615945882836812e-02 2.2542330132493825e-03 0.0000000000000000e+00  1.2141030272583456e-02 1.4474408828289286e-03 0.0000000000000000e+00  5.9904697048573288e-03 7.0731124493240754e-04 0.0000000000000000e+00  0.0000000000000000e+00 0.0000000000000000e+00 0.0000000000000000e+00  0.0000000000000000e+00 0.0000000000000000e+00 0.0000000000000000e+00  -3.1996948314026055e-03 9.7642296843989957e-04 0.0000000000000000e+00  -6.4858566600158483e-03 1.9926602646486470e-03 0.0000000000000000e+00  -9.9472223908608510e-03 3.0895750977989436e-03 0.0000000000000000e+00  -1.3676777445875584e-02 4.3101405658656439e-03 0.0000000000000000e+00  -1.3843951543416140e-02 -1.9828978843289061e-03 0.0000000000000000e+00  -1.3682885787779518e-02 -8.2768380184400601e-03 0.0000000000000000e+00  -8.9442780045182590e-03 -7.9108278596486410e-03 0.0000000000000000e+00  -4.4505255730867867e-03 -7.7040460364723260e-03 0.0000000000000000e+00  -8.0538270482141452e-05 -7.6509132050190326e-03 0.0000000000000000e+00  4.2832850965564499e-03 -7.7499696799129330e-03 0.0000000000000000e+00  8.7584134986082168e-03 -8.0038923659408422e-03 0.0000000000000000e+00  1.3465007285161170e-02 -8.4194983491728183e-03 0.0000000000000000e+00  1.3599901804952687e-02 -2.0959973837707045e-03 0.0000000000000000e+