<?xml version="1.0"?>
<VTKFile type="UnstructuredGrid"  version="0.1"  >
<UnstructuredGrid>
<Piece  NumberOfPoints="589" NumberOfCells="1080">
<Points>
<DataArray  type="Float64"  NumberOfComponents="3"  format="ascii">-9 0 0  -8 0 0  -7 0 0  -6 0 0  -5 0 0  -4 0 0  -3 0 0  -2 0 0  -1 0 0  0 0 0  1 0 0  2 0 0  3 0 0  4 0 0  5 0 0  6 0 0  7 0 0  8 0 0  9 0 0  -9 2 0  -8.000000472450688 1.999999557186018 0  -7.00000101118314 1.999999133428102 0  -6.000001720960267 1.999998739853491 0  -5.000002798750828 1.999998367229869 0  -4.000002054899261 1.999998874576005 0  -3.000001203187765 1.999999168767572 0  -2.00000066042309 1.999999362919346 0  -1.000000305962961 1.999999509760283 0  -6.610949448520663e-08 1.99999957147133 0  1.000000163281191 1.99999953269129 0  2.000000480218282 1.99999940000528 0  3.000000960240315 1.999999216112566 0  4.000001644184318 1.999998973196667 0  5.000002557554763 1.999998757483703 0  6.000001565487847 1.999998948091211 0  7.000000916959285 1.999999244276103 0  8.000000427777795 1.999999606124361 0  9 2 0  -9 4 0  -8.000000679773711 3.999999038148691 0  -7.000001338186893 3.999998146123871 0  -6.000001969865347 3.999997395903767 0  -5.000002590665953 3.999996864755676 0  -4.000001719486907 3.999997001027889 0  -3.00000099971327 3.999997535970087 0  -2.000000516518567 3.99999822909374 0  -1.000000239659588 3.999998762747577 0  -9.002339021147722e-08 3.999998979999104 0  1.000000050774101 3.999998830203538 0  2.000000303081852 3.999998390393734 0  3.00000078172793 3.999997774411054 0  4.000001501647505 3.99999714131081 0  5.000002320611294 3.99999685023059 0  6.000001756819791 3.999997473873659 0  7.000001196529092 3.999998225899767 0  8.000000609939979 3.999999084140154 0  9 4 0  -9 6 0  -8.000000972538233 5.999998239807932 0  -7.000001772129714 5.999996591602948 0  -6.000002262282636 5.999995175667644 0  -5.000002396260909 5.999994118880213 0  -4.000001060075657 5.999994780179336 0  -3.000000261343657 5.99999620398196 0  -2.000000056600588 5.9999976983791 0  -1.000000117608943 5.999998553124843 0  -1.92041234249443e-07 5.999998755659836 0  0.9999997862861215 5.999998478154481 0  1.999999875673101 5.999997724588211 0  3.000000134815893 5.999996486715042 0  4.000000709395434 5.999995206367361 0  5.000001881391332 5.99999459962012 0  6.000001934149287 5.999995486125687 0  7.00000158129238 5.9999967826686 0  8.000000885504905 5.999998331680497 0  9 6 0  -9 8 0  -8.000001957080254 7.999996993527094 0  -7.0000034438254 7.999994108011899 0  -6.000003979399926 7.999991518848002 0  -5.000003088462088 7.999989537114015 0  -4.000000986789098 7.999992502838538 0  -3.000000932056677 7.999995995426238 0  -2.000001259073692 7.999997787539911 0  -1.000000967078286 7.999998131355563 0  -2.34995667391891e-07 7.99999823979089 0  1.000000415258541 7.999998342099287 0  2.00000059391864 7.999997595050299 0  3.000000167300327 7.999996221150991 0  4.000000390784227 7.999993247366367 0  5.000002579324683 7.999989983850903 0  6.000003733935227 7.999991858238149 0  7.000003337773634 7.999994329569692 0  8.00000191993492 7.999997101997483 0  9 8 0  -9 10 0  -8.000004822933779 9.999995263440999 0  -7.000008920155136 9.999990439053446 0  -6.000011402533975 9.999985432370201 0  -5.000010985337608 9.999980132258223 0  -4.00000802584565 9.999988826905225 0  -3.000007726305335 9.999996430109261 0  -2.000005818042878 9.999995632386645 0  -1.000002852953073 9.999995376087753 0  -5.101157954522677e-07 9.99999531999868 0  1.000001818348523 9.999995286778399 0  2.000004696753217 9.999995110987342 0  3.000007660429731 9.999997223830256 0  4.000008090576943 9.999990020199105 0  5.000011290865807 9.999980832528545 0  6.000011736756013 9.999985842618608 0  7.000009180929108 9.999990672113332 0  8.000004962724837 9.999995370035036 0  9 10 0  -9 12 0  -8.00001059152304 11.99999388471325 0  -7.000020855674601 11.99998749934838 0  -6.000030423663787 11.99998051972279 0  -5.000038851083095 11.99997249273653 0  -4.000037691898472 11.99998687230968 0  -3.000038425686336 12.00000110620416 0  -2.000025859749504 11.99999934725073 0  -1.000012815521508 11.99999841012814 0  3.697804574210034e-07 11.9999982080796 0  1.00001369652542 11.99999875873552 0  2.000027222115201 12.00000025467187 0  3.000040822947844 12.00000319640297 0  4.000040195086553 11.99998785288416 0  5.000040831463497 11.99997243119544 0  6.000031746212882 11.99998054947462 0  7.000021673470618 11.99998754101058 0  8.000010983513912 11.99999390993961 0  9 12 0  -9 14 0  -8.000017669390171 13.99999358633947 0  -7.000035575520053 13.99998693675668 0  -6.00005400653161 13.99997979661847 0  -5.000073375464183 13.99997187701996 0  -4.000073804537588 13.99998686254378 0  -3.000073293462505 14.00000209232707 0  -2.000047815025829 13.99999977488943 0  -1.000023342570857 13.99999850394754 0  6.839336704124758e-07 13.99999808540943 0  1.000024779594856 13.99999844965382 0  2.000049447037412 13.99999961530674 0  3.000075188240401 14.00000165345838 0  4.000076008181422 13.99998670420494 0  5.000075866983717 13.99997190044368 0  6.000055705108647 13.9999797634767 0  7.000036634555733 13.99998690043711 0  8.000018178334386 13.99999356537414 0  9 14 0  -9 16 0  -8.000023800043955 15.99999423167404 0  -7.000048195424937 15.99998833643004 0  -6.000073837052882 15.99998219141903 0  -5.00010149206383 15.99997568658137 0  -4.00010256694827 15.99998654727506 0  -3.000101221287636 15.99999731738977 0  -2.000065747045597 15.99999601674542 0  -1.000032086119318 15.99999518830722 0  7.214550380356041e-07 15.9999948317463 0  1.000033575820993 15.99999493507191 0  2.000067377526976 15.99999548607992 0  3.000103091573225 15.99999646705522 0  4.000104541885682 15.99998584054689 0  5.000103519317127 15.99997520911691 0  6.000075297939232 15.99998188183882 0  7.000049137844559 15.99998814801133 0  8.000024261355385 15.99999414208149 0  9 16 0  -9 18 0  -8.000027549085678 17.99999538467621 0  -7.00005582992252 17.9999907351768 0  -6.00008561336262 17.99998602553425 0  -5.000117748510701 17.99998124749181 0  -4.00011907103041 17.99998605978279 0  -3.000117555206722 17.99999086906205 0  -2.000076426538067 17.9999903698485 0  -1.000037416607501 17.9999899852682 0  5.717930636283757e-07 17.99998973864858 0  1.000038582995033 17.99998962986669 0  2.00007765933674 17.99998963707742 0  3.000118891339431 17.99998971365166 0  4.000120458670538 17.99998517513734 0  5.000119152011769 17.99998067170825 0  6.000086644881755 17.99998562641565 0  7.000056506239789 17.99999048400559 0  8.000027883571244 17.99999526339413 0  9 18 0  -9 20 0  -8.000028370930968 19.99999667436455 0  -7.000057453629895 19.99999337447872 0  -6.000087982218919 19.99999013322453 0  -5.000120734530592 19.9999869980139 0  -4.000122020530934 19.99998558086098 0  -3.000120593362573 19.99998416600186 0  -2.00007863174546 19.99998426444203 0  -1.000038661402272 19.99998423045726 0  3.309171556373594e-07 19.99998409423853 0  1.00003932992652 19.99998386072373 0  2.000079319194286 19.99998351063746 0  3.000121308673844 19.99998299957803 0  4.000122733376979 19.9999847283022 0  5.000121446291433 19.99998647960162 0  6.00008851722744 19.99998975943527 0  7.000057810376687 19.99999313278646 0  8.000028549219962 19.99999655581911 0  9 20 0  -9 22 0  -8.00002634555851 21.99999786103702 0  -7.000053293460109 21.99999577923096 0  -6.000081455655444 21.99999381670736 0  -5.000111462094909 21.99999204555494 0  -4.000112559941697 21.99998513249414 0  -3.000111398121819 21.99997822607643 0  -2.000072872474727 21.99997868869491 0  -1.000035994378584 21.99997888455178 0  6.328853505995023e-08 21.99997883898483 0  1.000036116129303 21.99997855783357 0  2.000072978841095 21.99997802804376 0  3.000111475840887 21.99997721773243 0  4.000112608019735 21.99998442223879 0  5.000111496839902 21.99999164152907 0  6.000081500197678 21.9999935183489 0  7.000053331488655 21.99999558281564 0  8.000026366980451 21.99999776363101 0  9 22 0  -9 24 0  -8.00002191069647 23.99999881906916 0  -7.000044275845925 23.9999977068344 0  -6.000067551661843 23.99999673467767 0  -5.000092196844617 23.99999597924658 0  -4.000093052233901 23.99998475276012 0  -3.000092223179962 23.99997353702451 0  -2.000060523534905 23.99997417992433 0  -1.000030045886517 23.99997450427832 0  -1.850176184439479e-07 23.99997452600606 0  1.000029663130771 23.99997424943188 0  2.000060101910664 23.99997366746135 0  3.000091734433897 23.99997276194519 0  4.000092520244825 23.99998422729799 0  5.000091650700356 23.99999570477243 0  6.000067171003933 23.99999652664715 0  7.00004403554601 23.99999756743072 0  8.000021794528951 23.99999874921413 0  9 24 0  -9 26 0  -8.000015657916482 25.99999950230966 0  -7.000031615238199 25.99999907411427 0  -6.000048169795633 25.99999878572789 0  -5.00006561553179 25.99999870892122 0  -4.000066227557391 25.99998446423565 0  -3.00006573997344 25.99997023191057 0  -2.000043287086988 25.99997094526761 0  -1.000021630497196 25.99997133444482 0  -3.824226586030962e-07 25.99997140617026 0  1.000020847866023 25.99997116254853 0  2.000042450527948 25.9999706009889 0  3.000064811642594 25.99996971467478 0  4.00006525127733 25.99998412499384 0  5.000064627922972 25.99999854602608 0  6.000047464472735 25.99999865929447 0  7.000031161616621 25.99999898803588 0  8.000015436037721 25.99999945878026 0  9 26 0  -9 28 0  -8.000008207410492 27.99999990756686 0  -7.000016565454487 27.99999988215273 0  -6.000025223160351 27.9999999904079 0  -5.000034325910223 28.00000029803996 0  -4.000034713939706 27.99998427594485 0  -3.000034551664692 27.99996826629406 0  -2.000022865906149 27.9999690072807 0  -1.000011581257753 27.99996943436996 0  -5.086687252960475e-07 27.99996954767444 0  1.000010543350138 27.9999693473667 0  2.00002176580371 27.99996883345375 0  3.000033346293124 27.99996800624923 0  4.000033459873922 27.99998410845017 0  5.000033063802086 28.00000022150157 0  6.000024315198248 27.99999993004402 0  7.000015978360183 27.99999984062582 0  8.000007919291416 27.99999988644284 0  9 28 0  -9 30 0  
[...]
<PointData  Vectors="f_44-2"> 
<DataArray  type="Float64"  Name="f_44-2"  NumberOfComponents="3" format="ascii">0.0000000000000000e+00 0.0000000000000000e+00 0.0000000000000000e+00  0.0000000000000000e+00 0.0000000000000000e+00 0.0000000000000000e+00  0.0000000000000000e+00 0.0000000000000000e+00 0.0000000000000000e+00  0.0000000000000000e+00 0.0000000000000000e+00 0.0000000000000000e+00  0.0000000000000000e+00 0.0000000000000000e+00 0.0000000000000000e+00  0.0000000000000000e+00 0.0000000000000000e+00 0.0000000000000000e+00  0.0000000000000000e+00 0.0000000000000000e+00 0.0000000000000000e+00  0.0000000000000000e+00 0.0000000000000000e+00 0.0000000000000000e+00  0.0000000000000000e+00 0.0000000000000000e+00 0.0000000000000000e+00  0.0000000000000000e+00 0.0000000000000000e+00 0.0000000000000000e+00  0.0000000000000000e+00 0.0000000000000000e+00 0.0000000000000000e+00  0.0000000000000000e+00 0.0000000000000000e+00 0.0000000000000000e+00  0.0000000000000000e+00 0.0000000000000000e+00 0.0000000000000000e+00  0.0000000000000000e+00 0.0000000000000000e+00 0.0000000000000000e+00  0.0000000000000000e+00 0.0000000000000000e+00 0.0000000000000000e+00  0.0000000000000000e+00 0.0000000000000000e+00 0.0000000000000000e+00  0.0000000000000000e+00 0.0000000000000000e+00 0.0000000000000000e+00  0.0000000000000000e+00 0.0000000000000000e+00 0.0000000000000000e+00  0.0000000000000000e+00 0.0000000000000000e+00 0.0000000000000000e+00  0.0000000000000000e+00 0.0000000000000000e+00 0.0000000000000000e+00  -1.8472027292442776e-05 -2.0026511005248357e-05 0.0000000000000000e+00  -3.9304139234472159e-05 -3.8602357169453716e-05 0.0000000000000000e+00  -6.6602356814508194e-05 -5.4672874693739986e-05 0.0000000000000000e+00  -1.0855042679620837e-04 -6.8176056182534786e-05 0.0000000000000000e+00  -7.5679949557583094e-05 -4.8196566682373658e-05 0.0000000000000000e+00  -3.9432471176779530e-05 -3.4620488092929589e-05 0.0000000000000000e+00  -1.8114066778369119e-05 -2.4229737114108136e-05 0.0000000000000000e+00  -7.0086599581326184e-06 -1.6202476993300599e-05 0.0000000000000000e+00  -2.2028659282030005e-06 -1.2741056745449318e-05 0.0000000000000000e+00  2.0628706901415362e-06 -1.4961572821810755e-05 0.0000000000000000e+00  1.1283950497802350e-05 -2.2387444608392272e-05 0.0000000000000000e+00  2.9420200293756362e-05 -3.2087164712287029e-05 0.0000000000000000e+00  5.8172013427588886e-05 -4.3724831489572673e-05 0.0000000000000000e+00  9.7579180666797666e-05 -5.1618404069014311e-05 0.0000000000000000e+00  5.9444574428550450e-05 -4.5617317855225885e-05 0.0000000000000000e+00  3.4931235371046202e-05 -3.3641864147433933e-05 0.0000000000000000e+00  1.6390035327784024e-05 -1.7788415582897698e-05 0.0000000000000000e+00  0.0000000000000000e+00 0.0000000000000000e+00 0.0000000000000000e+00  0.0000000000000000e+00 0.0000000000000000e+00 0.0000000000000000e+00  -2.7503665918420067e-05 -4.5855592125821106e-05 0.0000000000000000e+00  -5.2743807374422838e-05 -8.7225948303850057e-05 0.0000000000000000e+00  -7.4605199506003211e-05 -1.1961503542751170e-04 0.0000000000000000e+00  -9.3733351385030927e-05 -1.3849033060222069e-04 0.0000000000000000e+00  -5.1965830738297876e-05 -1.3192390944237044e-04 0.0000000000000000e+00  -2.0078136553963073e-05 -1.0207777715360726e-04 0.0000000000000000e+00  -3.2911819611137727e-06 -6.3373013338861040e-05 0.0000000000000000e+00  3.6255226662562721e-07 -3.2917851272107110e-05 0.0000000000000000e+00  -3.5623172995053771e-06 -2.0530757693871178e-05 0.0000000000000000e+00  -7.9299509663438298e-06 -2.9452370713909554e-05 0.0000000000000000e+00  -5.6283517733234781e-06 -5.4710703767588229e-05 0.0000000000000000e+00  1.0287637220262867e-05 -8.9483109498922987e-05 0.0000000000000000e+00  4.1354984671784794e-05 -1.2474620498174852e-04 0.0000000000000000e+00  8.0853871511675157e-05 -1.3852538056038515e-04 0.0000000000000000e+00  6.4403896351368807e-05 -1.1513203917759394e-04 0.0000000000000000e+00  4.5973821613258279e-05 -8.2795612221622027e-05 0.0000000000000000e+00  2.4175343809345270e-05 -4.3316605904707195e-05 0.0000000000000000e+00  0.0000000000000000e+00 0.0000000000000000e+00 0.0000000000000000e+00  0.0000000000000000e+00 0.0000000000000000e+00 0.0000000000000000e+00  -4.5589337687939840e-05 -8.9625339225040361e-05 0.0000000000000000e+00  -7.9698492809404214e-05 -1.7177437593651971e-04 0.0000000000000000e+00  -9.3541085338449609e-05 -2.3861217755599849e-04 0.0000000000000000e+00  -8.4358089074832167e-05 -2.8229977191553411e-04 0.0000000000000000e+00  -1.3318547264496949e-05 -2.4175776750214235e-04 0.0000000000000000e+00  2.4458220740337395e-05 -1.5612629340138590e-04 0.0000000000000000e+00  2.4418584295898881e-05 -6.6353665801568900e-05 0.0000000000000000e+00  7.9776242094603960e-06 -1.5756600735132547e-05 0.0000000000000000e+00  -9.0069679991706915e-06 -4.6403356235528766e-06 0.0000000000000000e+00  -2.2946575251917332e-05 -2.0913660540343649e-05 0.0000000000000000e+00  -3.0507784536846276e-05 -6.5602164848385159e-05 0.0000000000000000e+00  -2.6880662256944759e-05 -1.4005841602166439e-04 0.0000000000000000e+00  -2.7641824062478762e-06 -2.1709453937813548e-04 0.0000000000000000e+00  5.8479569767683609e-05 -2.5429633158456259e-04 0.0000000000000000e+00  7.7283688457575439e-05 -2.2041891189993417e-04 0.0000000000000000e+00  7.0489995373996939e-05 -1.6051942860855238e-04 0.0000000000000000e+00  4.1468029979240312e-05 -8.4194934314840367e-05 0.0000000000000000e+00  0.0000000000000000e+00 0.0000000000000000e+00 0.0000000000000000e+00  0.0000000000000000e+00 0.0000000000000000e+00 0.0000000000000000e+00  -1.0931227554375737e-04 -1.6329930218024946e-04 0.0000000000000000e+00  -1.8771921996047690e-04 -3.1756671008117092e-04 0.0000000000000000e+00  -2.0457941509235302e-04 -4.5020918204769173e-04 0.0000000000000000e+00  -1.3184359715099939e-04 -5.3984132619389091e-04 0.0000000000000000e+00  -8.1885760525719122e-06 -3.5585135772731377e-04 0.0000000000000000e+00  -1.8351573022292266e-05 -1.3941317896456578e-04 0.0000000000000000e+00  -5.1633662943043721e-05 -3.1324142178691740e-05 0.0000000000000000e+00  -4.5468673665916087e-05 -1.4993575017866757e-05 0.0000000000000000e+00  -1.0507547110360057e-05 -1.0027714832382449e-05 0.0000000000000000e+00  1.8630687768170828e-05 -1.5411769829993609e-06 0.0000000000000000e+00  1.9481876760447171e-05 -4.6358023171979281e-05 0.0000000000000000e+00  -1.9911890042952957e-05 -1.2561333121172808e-04 0.0000000000000000e+00  -2.2522629936505383e-05 -3.0942924958601078e-04 0.0000000000000000e+00  1.0197047029912079e-04 -5.1408429412068619e-04 0.0000000000000000e+00  1.9255427813810771e-04 -4.2979280384205360e-04 0.0000000000000000e+00  1.8391865977622748e-04 -3.0394227844518252e-04 0.0000000000000000e+00  1.0854437645887222e-04 -1.5655417773127153e-04 0.0000000000000000e+00  0.0000000000000000e+00 0.0000000000000000e+00 0.0000000000000000e+00  0.0000000000000000e+00 0.0000000000000000e+00 0.0000000000000000e+00  -2.9665268197717694e-04 -2.7309752998090837e-04 0.0000000000000000e+00  -5.4196452837568319e-04 -5.4985383315144334e-04 0.0000000000000000e+00  -6.7399762166526697e-04 -8.3383941759668332e-04 0.0000000000000000e+00  -6.0520375926574751e-04 -1.1284664109073633e-03 0.0000000000000000e+00  -4.1958240193744236e-04 -5.5961304882095968e-04 0.0000000000000000e+00  -4.2748218043065406e-04 -6.6619391460685299e-05 0.0000000000000000e+00  -3.3234619159904877e-04 -1.3663891277368591e-04 0.0000000000000000e+00  -1.5927501436589539e-04 -1.5908709499031954e-04 0.0000000000000000e+00  -2.7361781541910583e-05 -1.6436602911179879e-04 0.0000000000000000e+00  1.0350621276545129e-04 -1.6506417979331037e-04 0.0000000000000000e+00  2.7116213591188318e-04 -1.7183678920619291e-04 0.0000000000000000e+00  4.3119370368326261e-04 -1.4115810376403868e-05 0.0000000000000000e+00  4.3470450202624214e-04 -4.7806585842726261e-04 0.0000000000000000e+00  6.3959478698130928e-04 -1.0807034892420741e-03 0.0000000000000000e+00  7.0469517846214640e-04 -8.0539679757268725e-04 0.0000000000000000e+00  5.6429728192017910e-04 -5.3351183075435427e-04 0.0000000000000000e+00  3.0829776712554675e-04 -2.6557525690409169e-04 0.0000000000000000e+00  0.0000000000000000e+00 0.0000000000000000e+00 0.0000000000000000e+00  0.0000000000000000e+00 0.0000000000000000e+00 0.0000000000000000e+00  -6.8934054369792109e-04 -3.6825458429854633e-04 0.0000000000000000e+00  -1.3492995188883633e-03 -7.5321398188601930e-04 0.0000000000000000e+00  -1.9466503876866756e-03 -1.1748876258993143e-03 0.0000000000000000e+00  -2.4406088546683581e-03 -1.6612172870180358e-03 0.0000000000000000e+00  -2.3551108357968632e-03 -6.6558767563178374e-04 0.0000000000000000e+00  -2.4222409441659381e-03 3.2022572215409969e-04 0.0000000000000000e+00  -1.6528064594647561e-03 1.9965276098688636e-04 0.0000000000000000e+00  -8.2250373588343376e-04 1.3436503999161473e-04 0.0000000000000000e+00  2.9945129145815453e-05 1.2028904982499581e-04 0.0000000000000000e+00  8.9159734071891017e-04 1.5908555636521637e-04 0.0000000000000000e+00  1.7532474158972913e-03 2.6317598267756279e-04 0.0000000000000000e+00  2.5900332303053402e-03 4.6422746215205794e-04 0.0000000000000000e+00  2.5242339508103253e-03 -5.9224241659813737e-04 0.0000000000000000e+00  2.5754981989898414e-03 -1.6558490379249276e-03 0.0000000000000000e+00  2.0387961296547915e-03 -1.1673009750931861e-03 0.0000000000000000e+00  1.4070650812979151e-03 -7.4727948550674396e-04 0.0000000000000000e+00  7.1723280305081459e-04 -3.6514570564747393e-04 0.0000000000000000e+00  0.0000000000000000e+00 0.0000000000000000e+00 0.0000000000000000e+00  0.0000000000000000e+00 0.0000000000000000e+00 0.0000000000000000e+00  -1.1995245915621090e-03 -3.9658635067389220e-04 0.0000000000000000e+00  -2.4070198664153299e-03 -8.0970686497007505e-04 0.0000000000000000e+00  -3.6327936484247757e-03 -1.2572970684881276e-03 0.0000000000000000e+00  -4.8931475405696191e-03 -1.7599675396234740e-03 0.0000000000000000e+00  -4.9116076049054045e-03 -6.4721609243548997e-04 0.0000000000000000e+00  -4.9006691208599209e-03 4.8117645340165291e-04 0.0000000000000000e+00  -3.2167969668077472e-03 3.1481676629943785e-04 0.0000000000000000e+00  -1.5743430860976028e-03 2.2298087027981505e-04 0.0000000000000000e+00  5.0443421589470479e-05 1.9346364077243086e-04 0.0000000000000000e+00  1.6797370550418970e-03 2.2207133091450428e-04 0.0000000000000000e+00  3.3348673496591437e-03 3.1036235165002248e-04 0.0000000000000000e+00  5.0356807876106779e-03 4.6340883542342944e-04 0.0000000000000000e+00  5.0680766043075679e-03 -6.4837575986765542e-04 0.0000000000000000e+00  5.0687442900952603e-03 -1.7517075835155227e-03 0.0000000000000000e+00  3.7529387884767604e-03 -1.2550744478536716e-03 0.0000000000000000e+00  2.4821952044649051e-03 -8.0948188512232897e-04 0.0000000000000000e+00  1.2357421734154267e-03 -3.9675596918692873e-04 0.0000000000000000e+00  0.0000000000000000e+00 0.0000000000000000e+00 0.0000000000000000e+00  0.0000000000000000e+00 0.0000000000000000e+00 0.0000000000000000e+00  -1.6777878266711023e-03 -3.5877828448473186e-04 0.0000000000000000e+00  -3.3915642575994003e-03 -7.2831405880176769e-04 0.0000000000000000e+00  -5.1805175010104952e-03 -1.1193752192241765e-03 0.0000000000000000e+00  -7.0905670955384737e-03 -1.5424830142901130e-03 0.0000000000000000e+00  -7.1600761456884349e-03 -6.4641138915332648e-04 0.0000000000000000e+00  -7.0837569319553671e-03 2.4389243492503357e-04 0.0000000000000000e+00  -4.6152130979756527e-03 1.3191568356676013e-04 0.0000000000000000e+00  -2.2555571485161495e-03 6.2345669235007933e-05 0.0000000000000000e+00  5.2912861494152583e-05 3.4159556257888509e-05 0.0000000000000000e+00  2.3645725424650426e-03 4.6344312627633798e-05 0.0000000000000000e+00  4.7338457732999939e-03 9.8547271933817319e-05 0.0000000000000000e+00  7.2188384130559115e-03 1.9078158716378908e-04 0.0000000000000000e+00  7.3032930321247497e-03 -6.9017598367830495e-04 0.0000000000000000e+00  7.2379624644728323e-03 -1.5718179989145872e-03 0.0000000000000000e+00  5.2867196964006460e-03 -1.1386739786997068e-03 0.0000000000000000e+00  3.4600938889596763e-03 -7.4020896000275645e-04 0.0000000000000000e+00  1.7113434433410305e-03 -3.6448186694609970e-04 0.0000000000000000e+00  0.0000000000000000e+00 0.0000000000000000e+00 0.0000000000000000e+00  0.0000000000000000e+00 0.0000000000000000e+00 0.0000000000000000e+00  -2.0120637774349529e-03 -2.7794043916285562e-04 0.0000000000000000e+00  -4.0753453777034312e-03 -5.6081798661342087e-04 0.0000000000000000e+00  -6.2437508264056273e-03 -8.5326414768645373e-04 0.0000000000000000e+00  -8.5766242241597894e-03 -1.1592257108047758e-03 0.0000000000000000e+00  -8.6737338952042574e-03 -6.5800633464021478e-04 0.0000000000000000e+00  -8.5725125974453007e-03 -1.5743627716125592e-04 0.0000000000000000e+00  -5.5781919623104194e-03 -2.2062982748705269e-04 0.0000000000000000e+00  -2.7320811453324699e-03 -2.6380586718401892e-04 0.0000000000000000e+00  4.2620872211473445e-05 -2.8660870628740155e-04 0.0000000000000000e+00  2.8190011450407522e-03 -2.8943693871579185e-04 0.0000000000000000e+00  5.6700511793631421e-03 -2.7337634918445260e-04 0.0000000000000000e+00  8.6721792548051201e-03 -2.4037112269595685e-04 0.0000000000000000e+00  8.7784805497512636e-03 -7.2249103220337508e-04 0.0000000000000000e+00  8.6836034910383886e-03 -1.2026465592240010e-03 0.0000000000000000e+00  6.3219305484379512e-03 -8.8355303551595110e-04 0.0000000000000000e+00  4.1264180392400034e-03 -5.7998155899117304e-04 0.0000000000000000e+00  2.0372747345393546e-03 -2.8722640327731764e-04 0.0000000000000000e+00  0.0000000000000000e+00 0.0000000000000000e+00 0.0000000000000000e+00  0.0000000000000000e+00 0.0000000000000000e+00 0.0000000000000000e+00  -2.1414371301951346e-03 -1.7735612744594118e-04 0.0000000000000000e+00  -4.3385698162454770e-03 -3.5504910348434373e-04 0.0000000000000000e+00  -6.6490922174367332e-03 -5.3309354598749686e-04 0.0000000000000000e+00  -9.1346794349819391e-03 -7.1084478989148531e-04 0.0000000000000000e+00  -9.2393378424700783e-03 -6.7203032954728931e-04 0.0000000000000000e+00  -9.1310224132053579e-03 -6.3367092505822904e-04 0.0000000000000000e+00  -5.9484581609902431e-03 -6.5323781142470692e-04 0.0000000000000000e+00  -2.9229672795746753e-03 -6.7144678146540456e-04 0.0000000000000000e+00  2.5613999448164675e-05 -6.8726599034994328e-04 0.0000000000000000e+00  2.9748011028283084e-03 -7.0076489133445502e-04 0.0000000000000000e+00  6.0020492184313769e-03 -7.1307206108114517e-04 0.0000000000000000e+00  9.1873540582479551e-03 -7.2643444722882730e-04 0.0000000000000000e+00  9.2968438179618848e-03 -7.4249206434476691e-04 0.0000000000000000e+00  9.1929578775390014e-03 -7.5719054284466953e-04 0.0000000000000000e+00  6.6923940948755119e-03 -5.6634620302140396e-04 0.0000000000000000e+00  4.3671914262269663e-03 -3.7649065229697777e-04 0.0000000000000000e+00  2.1556736412769351e-03 -1.8785811490491084e-04 0.0000000000000000e+00  0.0000000000000000e+00 0.0000000000000000e+00 0.0000000000000000e+00  0.0000000000000000e+00 0.0000000000000000e+00 0.0000000000000000e+00  -2.0480027158543785e-03 -7.5426578731457728e-05 0.0000000000000000e+00  -4.1481808341920891e-03 -1.4787702552492444e-04 0.0000000000000000e+00  -6.3540835340373109e-03 -2.1409946620312966e-04 0.0000000000000000e+00  -8.7219754463093643e-03 -2.7028714682678030e-04 0.0000000000000000e+00  -8.8197452716707331e-03 -6.8812876161229426e-04 0.0000000000000000e+00  -8.7200082491274179e-03 -1.1062453927998190e-03 0.0000000000000000e+00  -5.6905359711263669e-03 -1.0912804547619120e-03 0.0000000000000000e+00  -2.8062705189115379e-03 -1.0886484438147920e-03 0.0000000000000000e+00  6.1845020785056244e-06 -1.0972059532138635e-03 0.0000000000000000e+00  2.8184079372087943e-03 -1.1168619104079854e-03 0.0000000000000000e+00  5.7019272403067197e-03 -1.1485508240969128e-03 0.0000000000000000e+00  8.7299856711033734e-03 -1.1942407237269298e-03 0.0000000000000000e+00  8.8283257871681863e-03 -7.5413888870220732e-04 0.0000000000000000e+00  8.7300009808518788e-03 -3.1310369535278242e-04 0.0000000000000000e+00  6.3610674650654668e-03 -2.4518839393110391e-04 0.0000000000000000e+00  4.1532684476921463e-03 -1.6811079740188599e-04 0.0000000000000000e+00  2.0506706964909492e-03 -8.5394788914811709e-05 0.0000000000000000e+00  0.0000000000000000e+00 0.0000000000000000e+00 0.0000000000000000e+00  0.0000000000000000e+00 0.0000000000000000e+00 0.0000000000000000e+00  -1.7458441861818723e-03 1.4596905637829773e-05 0.0000000000000000e+00  -3.5348439543900416e-03 3.4380778132574982e-05 0.0000000000000000e+00  -5.4110353147911218e-03 6.4752219628052513e-05 0.0000000000000000e+00  -7.4201677441847833e-03 1.1153680508196972e-04 0.0000000000000000e+00  -7.5015540958212213e-03 -7.0445330501334961e-04 0.0000000000000000e+00  -7.4205699089852700e-03 -1.5204666598716450e-03 0.0000000000000000e+00  -4.8518810907126749e-03 -1.4800008259147198e-03 0.0000000000000000e+00  -2.4023755040586598e-03 -1.4611006569870027e-03 0.0000000000000000e+00  -1.2315851691779624e-05 -1.4627606349923764e-03 0.0000000000000000e+00  2.3768809080624018e-03 -1.4848361310180293e-03 0.0000000000000000e+00  4.8237500506041206e-03 -1.5280359119864018e-03 0.0000000000000000e+00  7.3878875320720818e-03 -1.5939135687484411e-03 0.0000000000000000e+00  7.4656423073503533e-03 -7.5891349439417420e-04 0.0000000000000000e+00  7.3830007175224510e-03 7.6840367572725447e-05 0.0000000000000000e+00  5.3851313387928831e-03 3.9316813706470145e-05 0.0000000000000000e+00  3.5184937964953525e-03 1.7712955042973690e-05 0.0000000000000000e+00  1.7379396502470881e-03 6.3515551574045058e-06 0.0000000000000000e+00  0.0000000000000000e+00 0.0000000000000000e+00 0.0000000000000000e+00  0.0000000000000000e+00 0.0000000000000000e+00 0.0000000000000000e+00  -1.2710408430440720e-03 8.3871721768967981e-05 0.0000000000000000e+00  -2.5727099811947351e-03 1.7428695168208167e-04 0.0000000000000000e+00  -3.9361446084326974e-03 2.7794915503095020e-04 0.0000000000000000e+00  -5.3934273939140430e-03 4.0188119940375488e-04 0.0000000000000000e+00  -5.4524681897917997e-03 -7.1960269481633225e-04 0.0000000000000000e+00  -5.3967267760596316e-03 -1.8409418630695705e-03 0.0000000000000000e+00  -3.5365814449715267e-03 -1.7824690507612674e-03 0.0000000000000000e+00  -1.7607367322895948e-03 -1.7513229219018635e-03 0.0000000000000000e+00  -2.7360994493927461e-05 -1.7466638954387050e-03 0.0000000000000000e+00  1.7047117840158709e-03 -1.7683242359130729e-03 0.0000000000000000e+00  3.4765949283983282e-03 -1.8168213123716729e-03 0.0000000000000000e+00  5.3299608141896089e-03 -1.8933034790206799e-03 0.0000000000000000e+00  5.3812979438299250e-03 -7.5807854606170424e-04 0.0000000000000000e+00  5.3206025237048189e-03 3.7773280846306492e-04 0.0000000000000000e+00  3.8841945385794251e-03 2.6014139037574131e-04 0.0000000000000000e+00  2.5393419742518368e-03 1.6256565773592417e-04 0.0000000000000000e+00  1.2547318864669535e-03 7.8057714915926455e-05 0.0000000000000000e+00  0.0000000000000000e+00 0.0000000000000000e+00 0.0000000000000000e+00  0.0000000000000000e+00 0.0000000000000000e+00 0.0000000000000000e+00  -6.7370082811019831e-04 1.2697218008200957e-04 0.0000000000000000e+00  -1.3634665758658049e-03 2.6120459654266874e-04 0.0000000000000000e+00  -2.0855961668647090e-03 4.1008301024237731e-04 0.0000000000000000e+00  -2.8568413817599489e-03 5.8123826171485647e-04 0.0000000000000000e+00  -2.8901767968449905e-03 -7.3258503269350579e-04 0.0000000000000000e+00  -2.8634290054979973e-03 -2.0461377642117659e-03 0.0000000000000000e+00  -1.8841631031180266e-03 -1.9756394585744058e-03 0.0000000000000000e+00  -9.4926077979908029e-04 -1.9356055208966923e-03 0.0000000000000000e+00  -3.7168384965977750e-05 -1.9252984550496514e-03 0.0000000000000000e+00  8.7334998765655023e-04 -1.9445234145170046e-03 0.0000000000000000e+00  1.8034844539706668e-03 -1.9936333760656225e-03 0.0000000000000000e+00  2.7746598183265303e-03 -2.0735129959485944e-03 0.0000000000000000e+00  2.7963519396203181e-03 -7.5257435559389167