<?xml version="1.0"?>
<VTKFile type="UnstructuredGrid"  version="0.1"  >
<UnstructuredGrid>
<Piece  NumberOfPoints="589" NumberOfCells="1080">
<Points>
<DataArray  type="Float64"  NumberOfComponents="3"  format="ascii">-9 0 0  -8 0 0  -7 0 0  -6 0 0  -5 0 0  -4 0 0  -3 0 0  -2 0 0  -1 0 0  0 0 0  1 0 0  2 0 0  3 0 0  4 0 0  5 0 0  6 0 0  7 0 0  8 0 0  9 0 0  -9 2 0  -8.000006758761225 1.999989913414995 0  -7.00001416560901 1.999981068052665 0  -6.000023756102424 1.999974471666784 0  -5.000039050488271 1.999970566311271 0  -4.000023179028477 1.999978028242323 0  -3.000006868243936 1.999985088130919 0  -1.99999890488054 1.999991708184191 0  -0.9999975546374931 1.999996943744243 0  -3.397067081163423e-07 1.999999254263939 0  0.9999965611144324 1.999997703559155 0  1.999996852404176 1.99999268138111 0  3.00000301499305 1.999986536369426 0  4.000015797256736 1.999980013553435 0  5.000034281362455 1.999977517485571 0  6.000020623966506 1.999978363759203 0  7.00001224857586 1.999983274778486 0  8.000005847263681 1.999990936566928 0  9 2 0  -9 4 0  -8.00001092503771 3.999974862517416 0  -7.000019596659726 3.999953140631287 0  -6.000024696570489 3.99993817944698 0  -5.000026494107506 3.999933167065921 0  -4.00000341867311 3.999936704944047 0  -2.99998793126928 3.99995658177684 0  -1.999983859719938 3.999982431087394 0  -0.9999896944224675 4.000003232604638 0  -9.235121079299879e-07 4.00001165631207 0  0.9999875969131145 4.000005217176138 0  1.999980910241683 3.999987715738511 0  2.999984057297031 3.999964036897858 0  3.999998569289778 3.999940303393401 0  5.000020777739492 3.999932619855429 0  6.000020119797233 3.999940468904934 0  7.000016600696337 3.999955547084188 0  8.000009478102163 3.999976267183026 0  9 4 0  -9 6 0  -8.000024104243908 5.999946152064254 0  -7.000039314493912 5.999898173019449 0  -6.000038846542099 5.999862094531329 0  -5.000020759724915 5.999843693311402 0  -3.999975772785579 5.999873202058137 0  -2.999955315470729 5.999934698975567 0  -1.99996341026141 5.999999130818124 0  -0.999983554962557 6.000034935537194 0  -3.909719757796462e-06 6.000042163400734 0  0.9999778235117965 6.000030668935892 0  1.999963922145707 5.999998808029939 0  2.999958711515314 5.999944974154697 0  3.999969279246523 5.999889217676234 0  5.000007455565504 5.999861774223685 0  6.000031060213689 5.99987365993169 0  7.000035366031165 5.999905254457946 0  8.000022529867136 5.999949549531517 0  9 6 0  -9 8 0  -8.000072850948643 7.999893979096946 0  -7.000121740159505 7.999795617211513 0  -6.000123469089621 7.999715314377896 0  -5.000058215016725 7.999670205792003 0  -3.999971125827924 7.999806152334254 0  -2.999987324771038 7.999965836371216 0  -2.000020142019622 8.000043560959627 0  -1.000023007120038 8.000052298826459 0  -3.587297749182293e-06 8.00005482344641 0  1.000010984101777 8.000062627780943 0  2.000005090251159 8.000030410273281 0  2.999967443249233 7.999975557208856 0  3.999954738391869 7.999839422736008 0  5.000039921504194 7.999685781647173 0  6.000119185975412 7.999728034875724 0  7.000122687883141 7.999804174287476 0  8.000074346694056 7.999898221344933 0  9 8 0  -9 10 0  -8.000217378589198 9.999811223215779 0  -7.000392737586119 9.999620907470058 0  -6.000475956482018 9.999427892957272 0  -5.000397246113516 9.999231918813553 0  -4.000259056345877 9.999671129007032 0  -3.000281967249094 10.00004869624711 0  -2.000226122970311 9.999983283551343 0  -1.000104789120397 9.999962295017603 0  -1.553431279940149e-05 9.999957177359084 0  1.000072922976984 9.99995760998128 0  2.000190580246701 9.999955396322324 0  3.000294250332163 10.00009068883433 0  4.000281367828491 9.999734818009346 0  5.000437550838626 9.999265149361026 0  6.000510221623758 9.99944697319296 0  7.000417293702761 9.999631523870157 0  8.000230127811143 9.999816004955678 0  9 10 0  -9 12 0  -8.000529678306492 11.99973473688532 0  -7.001031795376019 11.99945718469812 0  -6.001475194424533 11.99915264457838 0  -5.001821231049563 11.99880061445059 0  -4.001750462684953 11.99960206092241 0  -3.001814666618878 12.00039555072581 0  -2.001248498377325 12.0002991435625 0  -1.000618190663673 12.00024668937944 0  3.65067965812666e-05 12.00023597326032 0  1.000697911218893 12.00026860922349 0  2.001351167058483 12.00035418607751 0  3.001966883742393 12.00051674627426 0  4.001899238887 11.9996626083671 0  5.00194413374903 11.99880143310381 0  6.001562962296279 11.99915525261897 0  7.001088506480256 11.9994593043896 0  8.000557545799115 11.99973582721805 0  9 12 0  -9 14 0  -8.000951590020197 13.99970753561351 0  -7.001904711908836 13.99940163653734 0  -6.002862148516961 13.99906768176538 0  -5.003829917806972 13.99868872365433 0  -4.003839793993081 13.99962639421377 0  -3.003845901942362 14.000575930289 0  -2.002528625229281 14.0004394285507 0  -1.001229677238673 14.00036434089631 0  6.186312954019548e-05 14.000341552841 0  1.001356412909823 14.00036808004571 0  2.002663661163725 14.00044538070501 0  3.003991254913323 14.00057766897931 0  4.004001757924035 13.99962937002724 0  5.004007442529106 13.99868698162975 0  6.002987326494316 13.99906309807318 0  7.001984852644181 13.99939749655725 0  8.000990752202018 13.99970521158224 0  9 14 0  -9 16 0  -8.001366509812806 15.99973415899801 0  -7.002758945893405 15.99945849282959 0  -6.004205480532253 15.99916300541058 0  -5.005738881733297 15.99883751929396 0  -4.005793308431922 15.99963882279313 0  -3.005742178741226 16.00043589608071 0  -2.003737671274365 16.00033474983612 0  -1.001812515242244 16.00027335173349 0  7.521380467313563e-05 16.00025037463645 0  1.001965152445643 16.00026495182277 0  2.003896957384286 16.00031711848597 0  3.005912825622766 16.00040761117842 0  4.005970556907565 15.99960494714457 0  5.005920100880452 15.99880167032413 0  6.004338562427352 15.99913815216891 0  7.002846154910019 15.99944265823193 0  8.001409641337759 15.99972642634176 0  9 16 0  -9 18 0  -8.001676810221698 17.99980010568713 0  -7.003395152878752 17.9995947246301 0  -6.005198720228526 17.9993784694481 0  -5.007135507284119 17.99914617585411 0  -4.007217812812155 17.99964193950881 0  -3.00713876696908 18.00013706794916 0  -2.004632171366469 18.00007164862748 0  -1.002246986821008 18.00002926863494 0  7.966943087922343e-05 18.00000956232709 0  1.002407634479961 18.00001203545948 0  2.004796660856881 18.00003609744895 0  3.007309338227675 18.00008094325645 0  4.007393155920083 17.99958667655651 0  5.007313331465663 17.99909387070816 0  6.005330351320275 17.99934132522731 0  7.00348204657563 17.99957090439544 0  8.001719994192108 17.99978846714196 0  9 18 0  -9 20 0  -8.001820135247666 19.99988798529306 0  -7.003688788509934 19.99977447502345 0  -6.005656331062763 19.9996581363307 0  -5.007776841219625 19.99953795696542 0  -4.007870822436501 19.99964225321908 0  -3.007778267612736 19.99974585268339 0  -2.005044251926032 19.99971680962126 0  -1.002448879179782 19.99969492374798 0  7.882202682821319e-05 19.99968046361357 0  1.00260725262648 19.99967318054023 0  2.005204777867315 19.99967232665922 0  3.007942271013602 19.99967661009745 0  4.008036619744184 19.99957758238173 0  5.007943519262161 19.99947956110329 0  6.005780431913074 19.99961606047616 0  7.003771079576341 19.99974724299748 0  8.00186114584808 19.99987461447816 0  8.999999999992772 19.99999999999313 0  -9 22 0  -8.001768606520207 21.99998183101481 0  -7.003585203841113 21.99996553535946 0  -6.005499288478851 21.99995316898874 0  -5.00756335639352 21.99994715670401 0  -4.007655408702314 21.99963875223357 0  -3.007564265550539 21.9993295760998 0  -2.004905027663294 21.99933348218514 0  -1.002381626322528 21.99933102900607 0  7.504990275540837e-05 21.99932280951573 0  1.002532016228387 21.99930874972871 0  2.005056264009527 21.99928812130265 0  3.007716834885919 21.99925952919013 0  4.007807540738275 21.99957467700308 0  5.007714776597239 21.99989040670488 0  6.005612681973481 21.99991205399484 0  7.003660702318257 21.99993881035228 0  8.001806321373373 21.99996867386865 0  9 22 0  -9 24 0  -8.001524311824916 24.00006818394527 0  -7.003089970893214 24.0001408775588 0  -6.004739486986373 24.00022277849528 0  -5.006517618845598 24.00031896995979 0  -4.006597014935588 23.99963172304235 0  -3.006518988559439 23.99894378607014 0  -2.004225626962047 23.99897546590813 0  -1.002048936167209 23.99899008047669 0  7.019168092117893e-05 23.99898839602956 0  1.002189273217646 23.99897046348662 0  2.004365806545181 23.99893562175168 0  3.006658845032657 23.99888249271247 0  4.006734642360438 23.99957638408693 0  5.006653384459152 24.00027061707452 0  6.004841695999916 24.00018759275608 0  7.003158278621975 24.00011793452039 0  8.001558508689273 24.00005686686303 0  9 24 0  -9 26 0  -8.001113712226337 26.00013651455214 0  -7.002257512722128 26.00027940168631 0  -6.003462306675891 26.00043522390565 0  -5.004760488792485 26.00061093601321 0  -4.004819068102215 25.99962169812044 0  -3.004762986960776 25.99863192877133 0  -2.003082596280283 25.99868542386989 0  -1.001487377536067 25.99871404174276 0  6.564871696661972e-05 25.99871868457405 0  1.001618379014804 25.99869951531187 0  2.003212691741642 25.99865595871298 0  3.004891511724708 25.99858669902146 0  4.004944077783215 25.99958122659795 0  5.00488280642911 26.00057591168033 0  6.003554863470146 26.00040966819441 0  7.002319590601476 26.00026270376224 0  8.001144855715497 26.00012826717335 0  9 26 0  -9 28 0  -8.000581699539962 28.0001793735884 0  -7.001179147640845 28.00036619614446 0  -6.001808553183701 28.00056810901033 0  -5.002486845920607 28.00079314406716 0  -4.002519041794481 27.99960963968852 0  -3.002490724496593 27.99842586016456 0  -2.001601866766047 27.99849458981026 0  -1.000758402023887 27.99853359729464 0  6.242311026430594e-05 27.99854390881137 0  1.000882788474414 27.99852579587951 0  2.001724852857626 27.99847877615835 0  3.002611307015002 27.99840161219452 0  4.002635334619356 27.99958813881124 0  5.00259995880316 28.00077473685073 0  6.001894499533886 28.00055464969772 0  7.001236959258036 28.00035738755988 0  8.00061
[...]
<PointData  Vectors="f_44-2"> 
<DataArray  type="Float64"  Name="f_44-2"  NumberOfComponents="3" format="ascii">0.0000000000000000e+00 0.0000000000000000e+00 0.0000000000000000e+00  0.0000000000000000e+00 0.0000000000000000e+00 0.0000000000000000e+00  0.0000000000000000e+00 0.0000000000000000e+00 0.0000000000000000e+00  0.0000000000000000e+00 0.0000000000000000e+00 0.0000000000000000e+00  0.0000000000000000e+00 0.0000000000000000e+00 0.0000000000000000e+00  0.0000000000000000e+00 0.0000000000000000e+00 0.0000000000000000e+00  0.0000000000000000e+00 0.0000000000000000e+00 0.0000000000000000e+00  0.0000000000000000e+00 0.0000000000000000e+00 0.0000000000000000e+00  0.0000000000000000e+00 0.0000000000000000e+00 0.0000000000000000e+00  0.0000000000000000e+00 0.0000000000000000e+00 0.0000000000000000e+00  0.0000000000000000e+00 0.0000000000000000e+00 0.0000000000000000e+00  0.0000000000000000e+00 0.0000000000000000e+00 0.0000000000000000e+00  0.0000000000000000e+00 0.0000000000000000e+00 0.0000000000000000e+00  0.0000000000000000e+00 0.0000000000000000e+00 0.0000000000000000e+00  0.0000000000000000e+00 0.0000000000000000e+00 0.0000000000000000e+00  0.0000000000000000e+00 0.0000000000000000e+00 0.0000000000000000e+00  0.0000000000000000e+00 0.0000000000000000e+00 0.0000000000000000e+00  0.0000000000000000e+00 0.0000000000000000e+00 0.0000000000000000e+00  0.0000000000000000e+00 0.0000000000000000e+00 0.0000000000000000e+00  0.0000000000000000e+00 0.0000000000000000e+00 0.0000000000000000e+00  -3.1844026550092347e-05 -4.4494199959650452e-05 0.0000000000000000e+00  -6.7255732908996777e-05 -8.4054742432392886e-05 0.0000000000000000e+00  -1.1374441007631400e-04 -1.1474539849849555e-04 0.0000000000000000e+00  -1.8773906431242127e-04 -1.3506737636356062e-04 0.0000000000000000e+00  -1.1709409510131826e-04 -9.9569291217468172e-05 0.0000000000000000e+00  -4.2881585627148011e-05 -6.8765375376787200e-05 0.0000000000000000e+00  -4.6102745336975151e-06 -4.1130490275132457e-05 0.0000000000000000e+00  6.0696765192904507e-06 -1.9439194657947362e-05 0.0000000000000000e+00  -3.6806500820201390e-07 -1.0108983487765398e-05 0.0000000000000000e+00  -7.8694260256903338e-06 -1.6978127519113029e-05 0.0000000000000000e+00  -8.2604466579658159e-07 -3.8591103230030911e-05 0.0000000000000000e+00  3.1507315050971302e-05 -6.5560487647822746e-05 0.0000000000000000e+00  9.2988120315315299e-05 -9.5627240630881524e-05 0.0000000000000000e+00  1.8112057865303643e-04 -1.1124995976646946e-04 0.0000000000000000e+00  1.1037680058222729e-04 -1.0346331774874396e-04 0.0000000000000000e+00  6.5667895375835439e-05 -7.8551153349738087e-05 0.0000000000000000e+00  3.1241862936966561e-05 -4.2180065133261692e-05 0.0000000000000000e+00  0.0000000000000000e+00 0.0000000000000000e+00 0.0000000000000000e+00  0.0000000000000000e+00 0.0000000000000000e+00 0.0000000000000000e+00  -4.9416044652263823e-05 -1.0871791992667128e-04 0.0000000000000000e+00  -9.0203678837093597e-05 -2.0358519516994929e-04 0.0000000000000000e+00  -1.1746404001115890e-04 -2.7096344973311499e-04 0.0000000000000000e+00  -1.3253051386286869e-04 -2.9767297887824801e-04 0.0000000000000000e+00  -3.2665886146378593e-05 -2.8325850264330777e-04 0.0000000000000000e+00  3.6683694518169240e-05 -2.0115257460753391e-04 0.0000000000000000e+00  5.9755626300400579e-05 -9.4084900710451444e-05 0.0000000000000000e+00  4.2649943138428545e-05 -8.4168532751644538e-06 0.0000000000000000e+00  3.4531349855495382e-06 2.5780623524594736e-05 0.0000000000000000e+00  -3.6643616693272947e-05 -2.0014118596622666e-06 0.0000000000000000e+00  -5.6615463700133960e-05 -7.6516923977043095e-05 0.0000000000000000e+00  -3.5440839014634901e-05 -1.7784248954050606e-04 0.0000000000000000e+00  3.2990934680724915e-05 -2.8071782520752123e-04 0.0000000000000000e+00  1.3225484562044809e-04 -3.1895064314136793e-04 0.0000000000000000e+00  1.1661224477276586e-04 -2.7542526277657073e-04 0.0000000000000000e+00  9.0202572977832594e-05 -2.0293237184848721e-04 0.0000000000000000e+00  4.9744665358771887e-05 -1.0759021083828827e-04 0.0000000000000000e+00  0.0000000000000000e+00 0.0000000000000000e+00 0.0000000000000000e+00  0.0000000000000000e+00 0.0000000000000000e+00 0.0000000000000000e+00  -1.0149567954347670e-04 -2.2831995364967357e-04 0.0000000000000000e+00  -1.6726060387983204e-04 -4.3304944262013349e-04 0.0000000000000000e+00  -1.6995990261337975e-04 -5.8983527968398683e-04 0.0000000000000000e+00  -1.0157082731398661e-04 -6.7505808126296118e-04 0.0000000000000000e+00  8.7943297284774456e-05 -5.5585370322496885e-04 0.0000000000000000e+00  1.7754481735745683e-04 -3.0483108347140701e-04 0.0000000000000000e+00  1.5159242413362325e-04 -4.1445082464665163e-05 0.0000000000000000e+00  7.6299528487188483e-05 1.0554921850393289e-04 0.0000000000000000e+00  -4.1698253973559567e-07 1.3516825361983807e-04 0.0000000000000000e+00  -6.8875485257709050e-05 8.6356355543110467e-05 0.0000000000000000e+00  -1.1925560912760913e-04 -4.7733884422589986e-05 0.0000000000000000e+00  -1.3390761537035396e-04 -2.7375531109601775e-04 0.0000000000000000e+00  -8.3496678907240174e-05 -5.0879913004630683e-04 0.0000000000000000e+00  8.1236319199517112e-05 -6.2660757124389230e-04 0.0000000000000000e+00  1.6591630259564608e-04 -5.6323666208574425e-04 0.0000000000000000e+00  1.7092389719382394e-04 -4.1868662617866272e-04 0.0000000000000000e+00  1.0538479150309197e-04 -2.2196945043903734e-04 0.0000000000000000e+00  0.0000000000000000e+00 0.0000000000000000e+00 0.0000000000000000e+00  0.0000000000000000e+00 0.0000000000000000e+00 0.0000000000000000e+00  -2.9638372865228727e-04 -4.4217371328966591e-04 0.0000000000000000e+00  -4.9653943117638133e-04 -8.5416998828957268e-04 0.0000000000000000e+00  -5.0678618470644205e-04 -1.1948427753846334e-03 0.0000000000000000e+00  -2.4559020162075022e-04 -1.3959731444930191e-03 0.0000000000000000e+00  1.1220873164534856e-04 -8.4432692393761821e-04 0.0000000000000000e+00  5.5440019112925907e-05 -1.9608525731026289e-04 0.0000000000000000e+00  -6.9286953941462363e-05 1.2195773662903004e-04 0.0000000000000000e+00  -7.3297889911017408e-05 1.6155712798118907e-04 0.0000000000000000e+00  1.1997972987241982e-05 1.7347201425637755e-04 0.0000000000000000e+00  7.7146714184318912e-05 2.0465164545994591e-04 0.0000000000000000e+00  5.7251083093110027e-05 6.9149188366755108e-05 0.0000000000000000e+00  -9.2391916215657749e-05 -1.6321113665793670e-04 0.0000000000000000e+00  -1.3702756772439279e-04 -7.3051556794835582e-04 0.0000000000000000e+00  2.2153030509351168e-04 -1.3696633994669100e-03 0.0000000000000000e+00  5.3382714014323009e-04 -1.1756016260325722e-03 0.0000000000000000e+00  5.3373595845998718e-04 -8.4298403282662756e-04 0.0000000000000000e+00  3.2032432900423648e-04 -4.3726219353966157e-04 0.0000000000000000e+00  0.0000000000000000e+00 0.0000000000000000e+00 0.0000000000000000e+00  0.0000000000000000e+00 0.0000000000000000e+00 0.0000000000000000e+00  -8.7563706134864152e-04 -7.7629497735667223e-04 0.0000000000000000e+00  -1.5848661138589419e-03 -1.5598942365992582e-03 0.0000000000000000e+00  -1.9288202602435775e-03 -2.3568935219950584e-03 0.0000000000000000e+00  -1.6290538169772063e-03 -3.1703680824361844e-03 0.0000000000000000e+00  -1.0702715783425494e-03 -1.4078355780788611e-03 0.0000000000000000e+00  -1.1454725026689757e-03 1.0914288943900954e-04 0.0000000000000000e+00  -9.0256301959083828e-04 -1.4113435108160168e-04 0.0000000000000000e+00  -4.0227058801680786e-04 -2.2152413864041711e-04 0.0000000000000000e+00  -2.9446103910520558e-05 -2.4116161511753483e-04 0.0000000000000000e+00  3.4153477937735611e-04 -2.4059553974642791e-04 0.0000000000000000e+00  8.3306610402607967e-04 -2.5370045889546171e-04 0.0000000000000000e+00  1.2723595922574426e-03 2.9115787424648532e-04 0.0000000000000000e+00  1.2285807744130497e-03 -1.1785874586293574e-03 0.0000000000000000e+00  1.8727484601504373e-03 -3.1140983748714920e-03 0.0000000000000000e+00  2.1501114809184298e-03 -2.3412770025462914e-03 0.0000000000000000e+00  1.7490820663078924e-03 -1.5591859108984524e-03 0.0000000000000000e+00  9.6242450685612470e-04 -7.7838962005237098e-04 0.0000000000000000e+00  0.0000000000000000e+00 0.0000000000000000e+00 0.0000000000000000e+00  0.0000000000000000e+00 0.0000000000000000e+00 0.0000000000000000e+00  -2.1180088461103630e-03 -1.0802642552264674e-03 0.0000000000000000e+00  -4.1301923576716713e-03 -2.2104450640116750e-03 0.0000000000000000e+00  -5.9171530370612634e-03 -3.4502748328224982e-03 0.0000000000000000e+00  -7.3304786381622276e-03 -4.8829984204630276e-03 0.0000000000000000e+00  -7.0554518070848797e-03 -1.7026021002696221e-03 0.0000000000000000e+00  -7.3022753314254726e-03 1.4446302055018587e-03 0.0000000000000000e+00  -4.9554118153225342e-03 1.0674285714877346e-03 0.0000000000000000e+00  -2.3728607400742945e-03 8.6755143252163574e-04 0.0000000000000000e+00  2.9583016123899353e-04 8.3532310499622429e-04 0.0000000000000000e+00  2.9867455795617990e-03 9.7761582071118915e-04 0.0000000000000000e+00  5.6460920270850435e-03 1.3343978354893855e-03 0.0000000000000000e+00  8.1611531342511232e-03 2.0055436641513704e-03 0.0000000000000000e+00  7.8886607018154309e-03 -1.4923100888813189e-03 0.0000000000000000e+00  8.0684674935313592e-03 -5.0197062267423025e-03 0.0000000000000000e+00  6.4741859542176011e-03 -3.5419449813721198e-03 0.0000000000000000e+00  4.5040393730410846e-03 -2.2689167123806078e-03 0.0000000000000000e+00  2.3058087147995723e-03 -1.1090875956806809e-03 0.0000000000000000e+00  0.0000000000000000e+00 0.0000000000000000e+00 0.0000000000000000e+00  0.0000000000000000e+00 0.0000000000000000e+00 0.0000000000000000e+00  -3.7785251061456661e-03 -1.1835190984039415e-03 0.0000000000000000e+00  -7.5681629914137391e-03 -2.4205872436014386e-03 0.0000000000000000e+00  -1.1385929430650697e-02 -3.7694367066682401e-03 0.0000000000000000e+00  -1.5262709908841611e-02 -5.2974658025901370e-03 0.0000000000000000e+00  -1.5313546511498471e-02 -1.6250691135897746e-03 0.0000000000000000e+00  -1.5325113788300556e-02 2.0945086197165052e-03 0.0000000000000000e+00  -9.9607721650269553e-03 1.5686568421467541e-03 0.0000000000000000e+00  -4.6922416522198335e-03 1.2877575560756526e-03 0.0000000000000000e+00  5.3352235457357865e-04 1.2153238039333838e-03 0.0000000000000000e+00  5.7659522394118952e-03 1.3398387615977693e-03 0.0000000000000000e+00  1.1050831550114002e-02 1.6678873949916274e-03 0.0000000000000000e+00  1.6425835434577558e-02 2.2172273929382479e-03 0.0000000000000000e+00  1.6470939968973936e-02 -1.6458614136143279e-03 0.0000000000000000e+00  1.6489552557861203e-02 -5.4847990250110204e-03 0.0000000000000000e+00  1.2289010187261607e-02 -3.9195174732578183e-03 0.0000000000000000e+00  8.1639296548816596e-03 -2.5233605119214285e-03 0.0000000000000000e+00  4.0748491742538867e-03 -1.2354539663211464e-03 0.0000000000000000e+00  0.0000000000000000e+00 0.0000000000000000e+00 0.0000000000000000e+00  0.0000000000000000e+00 0.0000000000000000e+00 0.0000000000000000e+00  -5.3875917306774558e-03 -1.0718892063328418e-03 0.0000000000000000e+00  -1.0882094804237184e-02 -2.1821428655891591e-03 0.0000000000000000e+00  -1.6600101351005342e-02 -3.3696830227079766e-03 0.0000000000000000e+00  -2.2676850043870423e-02 -4.6739072069150109e-03 0.0000000000000000e+00  -2.2901781000526519e-02 -1.5950228316244383e-03 0.0000000000000000e+00  -2.2687759236397879e-02 1.4668362208395901e-03 0.0000000000000000e+00  -1.4601118429110353e-02 1.0957364317181893e-03 0.0000000000000000e+00  -6.8484908273704192e-03 8.7866344333212970e-04 0.0000000000000000e+00  7.4496253890545493e-04 8.1165479780883189e-04 0.0000000000000000e+00  8.3440038517437198e-03 8.9199480629028943e-04 0.0000000000000000e+00  1.6113205152165709e-02 1.1202752935978594e-03 0.0000000000000000e+00  2.4227748326048761e-02 1.4995296807503867e-03 0.0000000000000000e+00  2.4462366828322462e-02 -1.7594921943468334e-03 0.0000000000000000e+00  2.4255281182095838e-02 -5.0207495910723175e-03 0.0000000000000000e+00  1.7780590086916941e-02 -3.6177903379742394e-03 0.0000000000000000e+00  1.1666837192855616e-02 -2.3428363008820593e-03 0.0000000000000000e+00  5.7791822442108363e-03 -1.1509721334388848e-03 0.0000000000000000e+00  0.0000000000000000e+00 0.0000000000000000e+00 0.0000000000000000e+00  0.0000000000000000e+00 0.0000000000000000e+00 0.0000000000000000e+00  -6.5612482503975564e-03 -8.0663230856978458e-04 0.0000000000000000e+00  -1.3288915384918432e-02 -1.6339383724902744e-03 0.0000000000000000e+00  -2.0358149879416032e-02 -2.5020490614258983e-03 0.0000000000000000e+00  -2.7961137086779279e-02 -3.4300228381451080e-03 0.0000000000000000e+00  -2.8290649717738828e-02 -1.5974629369254010e-03 0.0000000000000000e+00  -2.7970419141407604e-02 2.3276883918066287e-04 0.0000000000000000e+00  -1.7928686325639070e-02 1.0517193582109357e-05 0.0000000000000000e+00  -8.3788706081476035e-03 -1.2592236710648976e-04 0.0000000000000000e+00  9.3374554412109718e-04 -1.7668900860453400e-04 0.0000000000000000e+00  1.0251475930394273e-02 -1.4299456704959236e-04 0.0000000000000000e+00  1.9816193897186942e-02 -2.6819380620657146e-05 0.0000000000000000e+00  2.9881396589212284e-02 1.6853180989935640e-04 0.0000000000000000e+00  3.0218308334335725e-02 -1.8417575072590989e-03 0.0000000000000000e+00  2.9896861762829772e-02 -3.8458333750242594e-03 0.0000000000000000e+00  2.1804121376476603e-02 -2.8022700403585086e-03 0.0000000000000000e+00  1.4250059458659188e-02 -1.8288615899529658e-03 0.0000000000000000e+00  7.0408693226334381e-03 -9.0252713814992940e-04 0.0000000000000000e+00  0.0000000000000000e+00 0.0000000000000000e+00 0.0000000000000000e+00  0.0000000000000000e+00 0.0000000000000000e+00 0.0000000000000000e+00  -7.0624636066531831e-03 -4.5880862718076913e-04 0.0000000000000000e+00  -1.4316067559293433e-02 -9.2236228565873010e-04 0.0000000000000000e+00  -2.1959111028777012e-02 -1.3946485580503582e-03 0.0000000000000000e+00  -3.0204156927768726e-02 -1.8782189679159484e-03 0.0000000000000000e+00  -3.0574006995057579e-02 -1.6059728715751478e-03 0.0000000000000000e+00  -3.0206363121279649e-02 -1.3367463743385560e-03 0.0000000000000000e+00  -1.9314724763452387e-02 -1.4145821410249631e-03 0.0000000000000000e+00  -8.9730844441836283e-03 -1.4695338081569095e-03 0.0000000000000000e+00  1.1016657761295178e-03 -1.4994457414937716e-03 0.0000000000000000e+00  1.1182412881090084e-02 -1.5045907800766457e-03 0.0000000000000000e+00  2.1542017209267655e-02 -1.4875645265947925e-03 0.0000000000000000e+00  3.2463424127767829e-02 -1.4534730419752146e-03 0.0000000000000000e+00  3.2839296351977208e-02 -1.8814994584542117e-03 0.0000000000000000e+00  3.2468051378706606e-02 -2.3057840573919791e-03 0.0000000000000000e+00  2.3648065470851316e-02 -1.7056672528401938e-03 0.0000000000000000e+00  1.5437773807842075e-02 -1.1250684370282978e-03 0.0000000000000000e+00  7.6220396526821190e-03 -5.5879841788195018e-04 0.0000000000000000e+00  -2.0773826625945559e-11 0.0000000000000000e+00 0.0000000000000000e+00  0.0000000000000000e+00 0.0000000000000000e+00 0.0000000000000000e+00  -6.7928880295543186e-03 -9.2148172553855765e-05 0.0000000000000000e+00  -1.3772192085759001e-02 -1.7590819136465542e-04 0.0000000000000000e+00  -2.1129846072849619e-02 -2.4212035137613069e-04 0.0000000000000000e+00  -2.9069238487136165e-02 -2.8001505806421364e-04 0.0000000000000000e+00  -2.9427886065458833e-02 -1.6267307926543836e-03 0.0000000000000000e+00  -2.9072476751172062e-02 -2.9773154626481653e-03 0.0000000000000000e+00  -1.8527105307129289e-02 -2.9301890896012810e-03 0.0000000000000000e+00  -8.5119543955695549e-03 -2.9121478099862629e-03 0.0000000000000000e+00  1.2456493785186038e-03 -2.9201114168974670e-03 0.0000000000000000e+00  1.1010402017249630e-02 -2.9538084353211724e-03 0.0000000000000000e+00  2.1047057374193073e-02 -3.0157244847370365e-03 0.0000000000000000e+00  3.1628502659356426e-02 -3.1111467290895522e-03 0.0000000000000000e+00  3.1986349568449458e-02 -1.8941637905610426e-03 0.0000000000000000e+00  3.1617468917735848e-02 -6.7583523977723188e-04 0.0000000000000000e+00  2.3029438856974799e-02 -5.3108634777459369e-04 0.0000000000000000e+00  1.5032999506911426e-02 -3.6480861527844163e-04 0.0000000000000000e+00  7.4216215485285210e-03 -1.8547118309572883e-04 0.0000000000000000e+00  0.0000000000000000e+00 0.0000000000000000e+00 0.0000000000000000e+00  0.0000000000000000e+00 0.0000000000000000e+00 0.0000000000000000e+00  -5.7712616353563506e-03 2.4095205509870043e-04 0.0000000000000000e+00  -1.1701393201120045e-02 5.0033020648087981e-04 0.0000000000000000e+00  -1.7951128358207624e-02 7.9705973533411264e-04 0.0000000000000000e+00  -2.4693837161037773e-02 1.1520867818581239e-03 0.0000000000000000e+00  -2.5002035015808031e-02 -1.6611820791514846e-03 0.0000000000000000e+00  -2.4704405430314144e-02 -4.4783608202680182e-03 0.0000000000000000e+00  -1.5644143051422577e-02 -4.3305480386326058e-03 0.0000000000000000e+00  -7.0324243154479020e-03 -4.2517655552257770e-03 0.0000000000000000e+00  1.3616974392120812e-03 -4.2388707774222486e-03 0.0000000000000000e+00  9.7639358668503585e-03 -4.2912495453773210e-03 0.0000000000000000e+00  1.8400086275470705e-02 -4.4111130264433036e-03 0.0000000000000000e+00  2.7502099948073403e-02 -4.6034843782258323e-03 0.0000000000000000e+00  2.7797609031880569e-02 -1.8894322864410277e-03 0.0000000000000000e+00  2.7472721811146121e-02 8.2457938887173568e-04 0.0000000000000000e+00  2.0021790842333572e-02 5.5716042340019578e-04 0.0000000000000000e+00  1.3074478917168531e-02 3.4304563497584734e-04 0.0000000000000000e+00  6.4560556360257794e-03 1.6315788482266992e-04 0.0000000000000000e+00  0.0000000000000000e+00 0.0000000000000000e+00 0.0000000000000000e+00  0.0000000000000000e+00 0.0000000000000000e+00 0.0000000000000000e+00  -4.1088973266702944e-03 5.0046759852201644e-04 0.0000000000000000e+00  -8.3309918613983878e-03 1.0261629283544070e-03 0.0000000000000000e+00  -1.2782480134007769e-02 1.6030236408686386e-03 0.0000000000000000e+00  -1.7585248711859822e-02 2.2585081989482331e-03 0.0000000000000000e+00  -1.7813550606729726e-02 -1.7089355416781316e-03 0.0000000000000000e+00  -1.7606733465817211e-02 -5.6796809706164573e-03 0.0000000000000000e+00  -1.0988717834892978e-02 -5.4558931891315974e-03 0.0000000000000000e+00  -4.6936509160073478e-03 -5.3301665946911755e-03 0.0000000000000000e+00  1.4463419075624998e-03 -5.2988942163772297e-03 0.0000000000000000e+00  7.5952000523323102e-03 -5.3611710288489151e-03 0.0000000000000000e+00  1.3916816257691299e-02 -5.5189974938012190e-03 0.0000000000000000e+00  2.0579846637256191e-02 -5.7769932691700615e-03 0.0000000000000000e+00  2.0781316030889951e-02 -1.8752449994457849e-03 0.0000000000000000e+00  2.0531695191240214e-02 2.0257149849820058e-03 0.0000000000000000e+00  1.4977254496136686e-02 1.4321275092541344e-03 0.0000000000000000e+00  9.7868349732485021e-03 9.1400101859234186e-04 0.0000000000000000e+00  4.8346080296345550e-03 4.4491838032701276e-04 0.0000000000000000e+00  0.0000000000000000e+00 0.0000000000000000e+00 0.0000000000000000e+00  0.0000000000000000e+00 0.0000000000000000e+00 0.0000000000000000e+00  -1.9853222875246910e-03 6.5921562923602212e-04 0.0000000000000000e+00  -4.0276341996249264e-03 1.3474192563541912e-03 0.0000000000000000e+00  -6.1858424585385955e-03 2.0943117390286466e-03 0.0000000000000000e+00  -8.5210623261893145e-03 2.9310135964510419e-03 0.0000000000000000e+00  -8.6491318359658790e-03 -1.7663007292510959e-03 0.0000000000000000e+00  -8.5536214943021140e-03 -6.4655789337225008e-03 0.0000000000000000e+00  -5.0659328453840071e-03 -6.1915501340712720e-03 0.0000000000000000e+00  -1.7456623424457675e-03 -6.0332774759618048e-03 0.0000000000000000e+00  1.4964923137182602e-03 -5.9869657274544156e-03 0.0000000000000000e+00  4.7478059433969481e-03 -6.0515056518222156e-03 0.0000000000000000e+00  8.0956793915498617e-03 -6.2285630469888532e-03 0.0000000000000000e+00  1.1629838002494366e-02 -6.5225558765594034e-03 0.0000000000000000e+00  1.1718009484926602e-02 -1.8558409317947851e-03 0.00000000000000