<?xml version="1.0"?>
<VTKFile type="UnstructuredGrid"  version="0.1"  >
<UnstructuredGrid>
<Piece  NumberOfPoints="589" NumberOfCells="1080">
<Points>
<DataArray  type="Float64"  NumberOfComponents="3"  format="ascii">-9 0 0  -8 0 0  -7 0 0  -6 0 0  -5 0 0  -4 0 0  -3 0 0  -2 0 0  -1 0 0  0 0 0  1 0 0  2 0 0  3 0 0  4 0 0  5 0 0  6 0 0  7 0 0  8 0 0  9 0 0  -9 2 0  -8.000001452042733 1.999998305426074 0  -7.000003079571138 1.999996756262518 0  -6.000005206011362 1.999995462905017 0  -5.000008496549705 1.999994448847381 0  -4.000005745355222 1.999996024204867 0  -3.000002764832241 1.999997182899553 0  -2.00000108420436 1.999998123792139 0  -1.000000332960651 1.999998856274253 0  -1.577614177661111e-07 1.999999175045252 0  0.9999999690831181 1.999998969339853 0  2.000000553431095 1.999998286439908 0  3.00000195100751 1.999997413259911 0  4.000004299577536 1.999996404958085 0  5.000007559281947 1.999995811510799 0  6.000004590786356 1.999996217875772 0  7.000002702254032 1.999997175723373 0  8.000001272063043 1.999998496629898 0  9 2 0  -9 4 0  -8.000002202136764 3.999996029225302 0  -7.000004163491425 3.999992489312762 0  -6.000005755621316 3.999989808617644 0  -5.000007030469559 3.999988410636988 0  -4.000003406347303 3.999988978072161 0  -3.000000734552554 3.999991719108628 0  -1.999999509685108 3.999995276500983 0  -0.9999995423309556 3.999998096658555 0  -2.864207898837782e-07 3.999999243549295 0  0.9999989303599518 3.999998406325805 0  1.999998773756238 3.999996063683176 0  2.999999898648578 3.999992857581019 0  4.000002468227373 3.999989621881368 0  5.000005902647391 3.999988438233224 0  6.000004861703355 3.999990229830357 0  7.00000357113356 3.999992899226094 0  8.000001911605839 3.999996263420826 0  9 4 0  -9 6 0  -8.000003915345589 5.999992029632306 0  -7.000006724313044 5.999984785543244 0  -6.000007574367746 5.999979023515266 0  -5.000006208084096 5.999975487846771 0  -3.999999790838142 5.999979323759315 0  -2.999996533066733 5.999987386034584 0  -1.999996898202037 5.99999583640488 0  -0.9999988193711943 6.000000576365712 0  -7.829893638804402e-07 6.000001591192321 0  0.9999975364724975 6.00000007226511 0  1.99999644684007 5.999995884924432 0  2.999996438755093 5.999988875917317 0  3.999998403970267 5.99998162512994 0  5.000003900328907 5.999978109344437 0  6.000006131131037 5.999980730632363 0  7.000005915835584 5.999985843584572 0  8.00000355944192 5.99999254072584 0  9 6 0  -9 8 0  -8.000010054748557 7.999985125155771 0  -7.000017120716906 7.999971153773282 0  -6.000018258451528 7.999959333208285 0  -5.000010843286661 7.999951757753249 0  -3.999999276197418 7.999969249370179 0  -3.000000634296618 7.999989820059583 0  -2.00000417235648 8.000000003376927 0  -1.000003925841203 8.000001406486778 0  -8.961156546026276e-07 8.000001826485489 0  1.000001557921257 8.000002698649135 0  2.000001348471108 7.999998485694651 0  2.999997231169573 7.999991131073323 0  3.999996506602696 7.999973679403004 0  5.000008020585207 7.999954163297035 0  6.000017184807449 7.999961265089695 0  7.000016824759414 7.999972451432558 0  8.000010019314976 7.999985769693808 0  9 8 0  -9 10 0  -8.000028148230863 9.999974607693906 0  -7.000051228769218 9.999948920046764 0  -6.000063153053642 9.999922664616687 0  -5.000055366823099 9.999895618912124 0  -4.00003765663711 9.999950569701793 0  -3.000039181679284 9.999998065506867 0  -2.000030804871781 9.999990794543018 0  -1.000014655536561 9.99998846339199 0  -2.496494081719798e-06 9.999987907914615 0  1.000009558256535 9.999987884134038 0  2.000025190118222 9.999987367151309 0  3.000039721744424 10.00000316263544 0  4.000039374654992 9.999958554766534 0  5.000059043489653 9.999900297454879 0  6.000066333458867 9.999925463004903 0  7.000053513937378 9.999950532558534 0  8.000029333770708 9.999975351106619 0  9 10 0  -9 12 0  -8.000066507880712 11.99996527332604 0  -7.000129954401379 11.99992896032147 0  -6.000186876074783 11.99988916205609 0  -5.000233006791426 11.99984322767695 0  -4.000224489678993 11.99994092914393 0  -3.000231520003596 12.00003767395893 0  -2.000158625466871 12.00002587485032 0  -1.000079036322568 12.00001945964045 0  3.046423951225807e-06 12.00001807959787 0  1.000086013649427 12.00002190920254 0  2.00016861744041 12.00003214329012 0  3.000247992317475 12.00005181084656 0  4.00024093277541 11.99994828131387 0  5.000246144934344 11.99984400534569 0  6.000195910122834 11.99989004860122 0  7.000135640631287 11.99992962002446 0  8.00006925945133 11.9999656125988 0  9 12 0  -9 14 0  -8.000117103777681 13.99996228614109 0  -7.000234764851521 13.999922944836 0  -6.000353738186525 13.9998802085745 0  -5.000475296017265 13.99983203988453 0  -4.000476822908059 13.99994321573359 0  -3.000476409018806 14.00005589492837 0  -2.000313241780103 14.000039423233 0  -1.000153399287838 14.00003031833058 0  5.053162752137441e-06 14.00002741550962 0  1.000163935501444 14.00003031978956 0  2.000324984864596 14.00003919062259 0  3.000489754477532 14.00005452818442 0  4.000492270148609 13.99994337208088 0  5.000492605247872 13.9998330045719 0  6.000365603504978 13.99988052874526 0  7.000242201159624 13.99992302718084 0  8.000120690095347 13.99996229713429 0  9 14 0  -9 16 0  -8.000165458286613 15.99996580988127 0  -7.000334306282338 15.99993051160791 0  -6.000510230289553 15.99989298843207 0  -5.000697540816654 15.99985213101358 0  -4.00070424019628 15.99994387537797 0  -3.000697211471201 16.00003506957679 0  -2.000454590478835 16.00002351413402 0  -1.000222216031873 16.0000163764242 0  5.340484131076691e-06 16.00001352994681 0  1.000233203210135 16.0000148709549 0  2.000466501068501 16.00002037779919 0  3.000710702657063 16.00003008391285 0  4.000718547430215 15.99993973114273 0  5.00071227892619 15.99984930457288 0  6.000520863423937 15.99989111614397 0  7.000341174814012 15.99992935135048 0  8.00016882382938 15.9999652516419 0  9 16 0  -9 18 0  -8.00020024150616 17.99997376641601 0  -7.000405521311988 17.9999469789851 0  -6.000621140604255 17.9999191068493 0  -5.000852930682655 17.99988967166883 0  -4.000862614357139 17.99994331771152 0  -3.000852791695377 17.99999689138313 0  -2.000554991686984 17.99998994088645 0  -1.000271779262943 17.99998527706908 0  4.402039741902946e-06 17.99998290186116 0  1.000280746453539 17.9999827659882 0  2.000564437881545 17.99998477469125 0  3.000862996965146 17.99998877185481 0  4.000873354076181 17.99993691687958 0  5.000863924873607 17.99988524492112 0  6.000629176571549 17.99991601137514 0  7.000410773308322 17.99994501664385 0  8.000202834830013 17.99997281434571 0  9 18 0  -9 20 0  -8.000214860296364 19.99998393796984 0  -7.000435356316749 19.9999677851625 0  -6.000667331540579 19.99995147770328 0  -5.000917044512012 19.9999350066994 0  -4.000927740920166 19.99994245319021 0  -3.000916865490827 19.99994984050645 0  -2.000597084433148 19.99994722547959 0  -1.000293238145444 19.99994502816777 0  2.810259001467376e-06 19.99994332131321 0  1.000298919595678 19.9999420873673 0  2.000602943192819 19.99994122185835 0  3.000923002489816 19.99994052775917 0  4.000934027312299 19.99993524345968 0  5.000923432672371 19.99993008874257 0  6.00067207093977 19.99994795155835 0  7.000438489146988 19.99996551222039 0  8.000216418204252 19.99998282484559 0  8.999999999997844 20.00000000000068 0  -9 22 0  -8.000206926238828 21.99999447221388 0  -7.000419253362843 21.99998920956851 0  -6.00064253620977 21.99998450227935 0  -5.000882635402302 21.9999806910448 0  -4.000892827365996 21.99994127836941 0  -3.000882529639209 21.99990181943032 0  -2.000575479038108 21.99990284002759 0  -1.000283524820051 21.99990281851989 0  9.747253272781707e-07 21.99990185024038 0  1.000285454964482 21.99989993591662 0  2.000577346523001 21.99989698385667 0  3.00088427698393 21.99989280888229 0  4.000894456459 21.99993435535904 0  5.000884220333796 21.9999759915578 0  6.00064380970135 21.99998109974449 0  7.000420140240033 21.99998699941105 0  8.000207380494436 21.99999338462082 0  9 22 0  -9 24 0  -8.000177378922039 24.0000039456902 0  -7.0003593067336 24.00000841224069 0  -6.000550440930335 24.00001394213688 0  -5.000755649015454 24.00002112109442 0  -4.000764251906231 23.99993994536437 0  -3.000755681715582 23.99985874619784 0  -2.000493526861969 23.99986262070951 0  -1.000244010715354 23.99986439383052 0  -7.826186323686228e-07 23.99986416121449 0  1.000242364991602 23.99986193313139 0  2.000491635308294 23.99985763491038 0  3.000753365957465 23.99985110694514 0  4.000761617120094 23.99993411745029 0  5.000752880839969 24.000017199517 0  6.000548550470961 24.00001108143257 0  7.000358132682572 24.0000065440002 0  8.000176816944858 24.00000302334784 0  9 24 0  -9 26 0  -8.000129621970093 26.00001133574583 0  -7.000262514527099 26.00002336140433 0  -6.000402015661877 26.00003678543857 0  -5.000551595172679 26.00005235323171 0  -4.000557862324887 25.99993858187529 0  -3.000551819659583 25.99982480501696 0  -2.000361056533237 25.99983080417046 0  -1.00017936114471 25.99983398828951 0  -2.216458431586996e-06 25.99983445021699 0  1.000174804176838 25.99983220693434 0  2.000356123215862 25.9998272007509 0  3.000546244844602 25.99981929792502 0  4.00055183280417 25.99993440337082 0  5.000545374072538 26.00004956210026 0  6.000397608407464 26.00003474030636 0  7.000259697310737 26.00002202138625 0  8.000128249145222 26.00001067284234 0  9 26 0  -9 28 0  -8.000068770732954 28.00001596625519 0  -7.000139265624233 28.00003271706123 0  -6.000213241983366 28.00005105352613 0  -5.000292520774076 28.00007180956791 0  -4.000295991020611 27.99993729450966 0  -3.000292978417731 27.99980279039681 0  -2.000192351104833 27.99981024393598 0  -1.000096525081048 27.99981446826184 0  -3.152563415806419e-06 27.99981555563634 0  1.000090069592561 27.99981353034326 0  2.000185440194136 27.99980834821017 0  3.00028529498788 27.9997998972095 0  4.000287774554041 27.99993510850193 0  5.000284081322413 28.00007035885701 0  6.000207214918325 28.00004998783313 0  7.000135389535183 28.00003201747055 0  8.000066874822217
[...]
<PointData  Vectors="f_44-2"> 
<DataArray  type="Float64"  Name="f_44-2"  NumberOfComponents="3" format="ascii">0.0000000000000000e+00 0.0000000000000000e+00 0.0000000000000000e+00  0.0000000000000000e+00 0.0000000000000000e+00 0.0000000000000000e+00  0.0000000000000000e+00 0.0000000000000000e+00 0.0000000000000000e+00  0.0000000000000000e+00 0.0000000000000000e+00 0.0000000000000000e+00  0.0000000000000000e+00 0.0000000000000000e+00 0.0000000000000000e+00  0.0000000000000000e+00 0.0000000000000000e+00 0.0000000000000000e+00  0.0000000000000000e+00 0.0000000000000000e+00 0.0000000000000000e+00  0.0000000000000000e+00 0.0000000000000000e+00 0.0000000000000000e+00  0.0000000000000000e+00 0.0000000000000000e+00 0.0000000000000000e+00  0.0000000000000000e+00 0.0000000000000000e+00 0.0000000000000000e+00  0.0000000000000000e+00 0.0000000000000000e+00 0.0000000000000000e+00  0.0000000000000000e+00 0.0000000000000000e+00 0.0000000000000000e+00  0.0000000000000000e+00 0.0000000000000000e+00 0.0000000000000000e+00  0.0000000000000000e+00 0.0000000000000000e+00 0.0000000000000000e+00  0.0000000000000000e+00 0.0000000000000000e+00 0.0000000000000000e+00  0.0000000000000000e+00 0.0000000000000000e+00 0.0000000000000000e+00  0.0000000000000000e+00 0.0000000000000000e+00 0.0000000000000000e+00  0.0000000000000000e+00 0.0000000000000000e+00 0.0000000000000000e+00  0.0000000000000000e+00 0.0000000000000000e+00 0.0000000000000000e+00  0.0000000000000000e+00 0.0000000000000000e+00 0.0000000000000000e+00  -3.0619979584816928e-05 -4.4395488097892878e-05 0.0000000000000000e+00  -6.4211406178493928e-05 -8.3469275952171971e-05 0.0000000000000000e+00  -1.0763798049887716e-04 -1.1291535445061948e-04 0.0000000000000000e+00  -1.7649118366499429e-04 -1.3089377826134814e-04 0.0000000000000000e+00  -1.0641103283530325e-04 -9.7283237111993461e-05 0.0000000000000000e+00  -3.4124771276901829e-05 -6.6250767171555853e-05 0.0000000000000000e+00  1.6558941229303132e-06 -3.7477917866066674e-05 0.0000000000000000e+00  8.7349709429149269e-06 -1.4733404337498726e-05 0.0000000000000000e+00  -2.1439871522920990e-06 -4.6603321319659588e-06 0.0000000000000000e+00  -1.4461468729846501e-05 -1.1247496288564135e-05 0.0000000000000000e+00  -1.2235041886468300e-05 -3.2795736815917158e-05 0.0000000000000000e+00  1.5244604013391285e-05 -5.9207183959382996e-05 0.0000000000000000e+00  7.1198503423197299e-05 -8.7263390132069440e-05 0.0000000000000000e+00  1.5171566182439145e-04 -9.7959099522225667e-05 0.0000000000000000e+00  9.1151252736479662e-05 -9.4042484610122693e-05 0.0000000000000000e+00  5.4012098905751438e-05 -7.2601493182915925e-05 0.0000000000000000e+00  2.5733973097133280e-05 -3.9316094592230331e-05 0.0000000000000000e+00  0.0000000000000000e+00 0.0000000000000000e+00 0.0000000000000000e+00  0.0000000000000000e+00 0.0000000000000000e+00 0.0000000000000000e+00  -4.9353905079247978e-05 -1.1007695957801723e-04 0.0000000000000000e+00  -8.9082151889649443e-05 -2.0544875766123402e-04 0.0000000000000000e+00  -1.1356918837962601e-04 -2.7170099390020800e-04 0.0000000000000000e+00  -1.2399652656907908e-04 -2.9507112803128148e-04 0.0000000000000000e+00  -2.3009207088018638e-05 -2.7931593273504537e-04 0.0000000000000000e+00  4.5258195891375616e-05 -1.9306689687744260e-04 0.0000000000000000e+00  6.4326487302333949e-05 -8.1008945455634566e-05 0.0000000000000000e+00  4.0694021323665585e-05 9.0965056586425660e-06 0.0000000000000000e+00  -6.2583574091448452e-06 4.5719450636537946e-05 0.0000000000000000e+00  -5.4345358783895601e-05 1.8269665577000134e-05 0.0000000000000000e+00  -8.1847432469222438e-05 -5.6866954093647878e-05 0.0000000000000000e+00  -6.7112047398271469e-05 -1.5856781290038196e-04 0.0000000000000000e+00  -3.6511898350272359e-06 -2.6029251857349748e-04 0.0000000000000000e+00  9.2595461458782634e-05 -2.9272137160448597e-04 0.0000000000000000e+00  8.8600997088509155e-05 -2.5818198880030966e-04 0.0000000000000000e+00  7.2579753451656545e-05 -1.9257978864774147e-04 0.0000000000000000e+00  4.1290949113935691e-05 -1.0275411353243799e-04 0.0000000000000000e+00  0.0000000000000000e+00 0.0000000000000000e+00 0.0000000000000000e+00  0.0000000000000000e+00 0.0000000000000000e+00 0.0000000000000000e+00  -1.0658958853128383e-04 -2.3457555079128478e-04 0.0000000000000000e+00  -1.7491780617662697e-04 -4.4390331629726978e-04 0.0000000000000000e+00  -1.7573956937497632e-04 -6.0201218808367057e-04 0.0000000000000000e+00  -1.0067564014954573e-04 -6.8400293508149299e-04 0.0000000000000000e+00  9.4626742235768356e-05 -5.5634954003460735e-04 0.0000000000000000e+00  1.8414590546986665e-04 -2.9063563704295661e-04 0.0000000000000000e+00  1.5057982019086609e-04 -1.2280792150288598e-05 0.0000000000000000e+00  6.5019807671178888e-05 1.4251181207134485e-04 0.0000000000000000e+00  -2.1444736876032496e-05 1.7406836195555018e-04 0.0000000000000000e+00  -9.8798783956813513e-05 1.2474857895072438e-04 0.0000000000000000e+00  -1.5722857203010992e-04 -1.2132061109341578e-05 0.0000000000000000e+00  -1.7832877310184581e-04 -2.4316046417784760e-04 0.0000000000000000e+00  -1.3175105750842296e-04 -4.8216770289544105e-04 0.0000000000000000e+00  3.3335723983187994e-05 -5.9913220125286837e-04 0.0000000000000000e+00  1.3415810589508214e-04 -5.4657002380189927e-04 0.0000000000000000e+00  1.5221693328113149e-04 -4.0944870360686459e-04 0.0000000000000000e+00  9.6855242082613091e-05 -2.1790266979256572e-04 0.0000000000000000e+00  0.0000000000000000e+00 0.0000000000000000e+00 0.0000000000000000e+00  0.0000000000000000e+00 0.0000000000000000e+00 0.0000000000000000e+00  -3.1696281985245259e-04 -4.6004998829012972e-04 0.0000000000000000e+00  -5.3077415137519615e-04 -8.8721719011189588e-04 0.0000000000000000e+00  -5.4145140011193976e-04 -1.2367801478086688e-03 0.0000000000000000e+00  -2.6341800227844335e-04 -1.4349832470662743e-03 0.0000000000000000e+00  1.1314757669282848e-04 -8.4853342454116389e-04 0.0000000000000000e+00  4.4693840521847077e-05 -1.5928109947780901e-04 0.0000000000000000e+00  -9.5802902451752963e-05 1.7674743934671853e-04 0.0000000000000000e+00  -1.0748816107174897e-04 2.1515314022936861e-04 0.0000000000000000e+00  -2.3257519093732040e-05 2.2620910045444248e-04 0.0000000000000000e+00  4.0389606092267685e-05 2.5919367634642170e-04 0.0000000000000000e+00  1.6262888619880981e-05 1.2064648259849166e-04 0.0000000000000000e+00  -1.4360398130744423e-04 -1.1561792712091696e-04 0.0000000000000000e+00  -1.9575790044883674e-04 -6.9956362534252228e-04 0.0000000000000000e+00  1.7139162370369225e-04 -1.3576641209000547e-03 0.0000000000000000e+00  5.1075902860883162e-04 -1.1731732240092101e-03 0.0000000000000000e+00  5.2552398233262992e-04 -8.4399988783446253e-04 0.0000000000000000e+00  3.1838295528574507e-04 -4.3846493783123282e-04 0.0000000000000000e+00  0.0000000000000000e+00 0.0000000000000000e+00 0.0000000000000000e+00  0.0000000000000000e+00 0.0000000000000000e+00 0.0000000000000000e+00  -9.3986908869483422e-04 -8.1699603876300058e-04 0.0000000000000000e+00  -1.6990685654550393e-03 -1.6408566483317522e-03 0.0000000000000000e+00  -2.0619312374957018e-03 -2.4768372286512286e-03 0.0000000000000000e+00  -1.7283098881597063e-03 -3.3264802753423897e-03 0.0000000000000000e+00  -1.1311499440518362e-03 -1.4339856215157044e-03 0.0000000000000000e+00  -1.2272271430651569e-03 1.9448105645129862e-04 0.0000000000000000e+00  -9.8534211837502566e-04 -8.4712956796796968e-05 0.0000000000000000e+00  -4.6186472857990147e-04 -1.7421407720182938e-04 0.0000000000000000e+00  -7.6600874683775826e-05 -1.9594825181631071e-04 0.0000000000000000e+00  3.0490531593619887e-04 -1.9433937797097526e-04 0.0000000000000000e+00  8.1097344802318115e-04 -2.0443918813505636e-04 0.0000000000000000e+00  1.2583750240911498e-03 3.7130402666047117e-04 0.0000000000000000e+00  1.2072412128073784e-03 -1.1534601211468135e-03 0.0000000000000000e+00  1.8775510263352895e-03 -3.1628059216716534e-03 0.0000000000000000e+00  2.1856195504994778e-03 -2.3783892581726849e-03 0.0000000000000000e+00  1.7863601943721150e-03 -1.5839313423428930e-03 0.0000000000000000e+00  9.8481540245038942e-04 -7.9070445161249483e-04 0.0000000000000000e+00  0.0000000000000000e+00 0.0000000000000000e+00 0.0000000000000000e+00  0.0000000000000000e+00 0.0000000000000000e+00 0.0000000000000000e+00  -2.2851238859245512e-03 -1.1463605355819804e-03 0.0000000000000000e+00  -4.4521747482914658e-03 -2.3458100939042236e-03 0.0000000000000000e+00  -6.3674754377677865e-03 -3.6618310765177712e-03 0.0000000000000000e+00  -7.8655576140916096e-03 -5.1829963041939943e-03 0.0000000000000000e+00  -7.5576338572292011e-03 -1.7316420198156279e-03 0.0000000000000000e+00  -7.8306273716406746e-03 1.6862452079870417e-03 0.0000000000000000e+00  -5.4018957770458342e-03 1.2710220718606779e-03 0.0000000000000000e+00  -2.6962602950649315e-03 1.0437887901377008e-03 0.0000000000000000e+00  1.1542335013260632e-04 9.9504816717503001e-04 0.0000000000000000e+00  2.9573676235610047e-03 1.1316069710064402e-03 0.0000000000000000e+00  5.7662325447815875e-03 1.4943552688576570e-03 0.0000000000000000e+00  8.4169505386150131e-03 2.1859692645690917e-03 0.0000000000000000e+00  8.1338773387133554e-03 -1.4639311716280765e-03 0.0000000000000000e+00  8.3280550387160035e-03 -5.1428369267387712e-03 0.0000000000000000e+00  6.6890686917163485e-03 -3.6235061591314527e-03 0.0000000000000000e+00  4.6559736038940700e-03 -2.3187746245104629e-03 0.0000000000000000e+00  2.3841038580835021e-03 -1.1327516367216472e-03 0.0000000000000000e+00  0.0000000000000000e+00 0.0000000000000000e+00 0.0000000000000000e+00  0.0000000000000000e+00 0.0000000000000000e+00 0.0000000000000000e+00  -4.1020005677785219e-03 -1.2632329525102393e-03 0.0000000000000000e+00  -8.2112146859624844e-03 -2.5842434833372413e-03 0.0000000000000000e+00  -1.2340076399316365e-02 -4.0259075658052356e-03 0.0000000000000000e+00  -1.6515346077595694e-02 -5.6610724228102578e-03 0.0000000000000000e+00  -1.6553544573370847e-02 -1.6234739842772234e-03 0.0000000000000000e+00  -1.6575602232679593e-02 2.4654139982907448e-03 0.0000000000000000e+00  -1.0927322668067351e-02 1.8750565035827859e-03 0.0000000000000000e+00  -5.3554112820870196e-03 1.5480447574222752e-03 0.0000000000000000e+00  1.8653828997301260e-04 1.4450503330267583e-03 0.0000000000000000e+00  5.7430870006861404e-03 1.5530439717847855e-03 0.0000000000000000e+00  1.1355880973378392e-02 1.8780483280767327e-03 0.0000000000000000e+00  1.7057951266085756e-02 2.4379261486839640e-03 0.0000000000000000e+00  1.7110026214830393e-02 -1.6035852241211225e-03 0.0000000000000000e+00  1.7136651949249210e-02 -5.6195665466298806e-03 0.0000000000000000e+00  1.2767361955420791e-02 -4.0097049153069398e-03 0.0000000000000000e+00  8.4797532599316400e-03 -2.5784729736644005e-03 0.0000000000000000e+00  4.2317446629374384e-03 -1.2615433630808622e-03 0.0000000000000000e+00  0.0000000000000000e+00 0.0000000000000000e+00 0.0000000000000000e+00  0.0000000000000000e+00 0.0000000000000000e+00 0.0000000000000000e+00  -5.8891205318872672e-03 -1.1489081090265362e-03 0.0000000000000000e+00  -1.1890183538277910e-02 -2.3398782392011000e-03 0.0000000000000000e+00  -1.8124668244032922e-02 -3.6157051034201196e-03 0.0000000000000000e+00  -2.4734098151345470e-02 -5.0198562998584806e-03 0.0000000000000000e+00  -2.4964176976435812e-02 -1.5674234188057139e-03 0.0000000000000000e+00  -2.4741319751933024e-02 1.8664197729044854e-03 0.0000000000000000e+00  -1.6149593897693371e-02 1.4264257425707241e-03 0.0000000000000000e+00  -7.8957423962236276e-03 1.1568063788107489e-03 0.0000000000000000e+00  1.9927252058402417e-04 1.0516169414111804e-03 0.0000000000000000e+00  8.3048671135377145e-03 1.1069448920486395e-03 0.0000000000000000e+00  1.6590643541341037e-02 1.3227523167716406e-03 0.0000000000000000e+00  2.5237049241104054e-02 1.7020265746555401e-03 0.0000000000000000e+00  2.5489849268277884e-02 -1.7061841014968842e-03 0.0000000000000000e+00  2.5275981875581006e-02 -5.1173987563173035e-03 0.0000000000000000e+00  1.8516289743299656e-02 -3.6810541080975179e-03 0.0000000000000000e+00  1.2143532666657237e-02 -2.3807276282898937e-03 0.0000000000000000e+00  6.0133741583678797e-03 -1.1686668937804074e-03 0.0000000000000000e+00  0.0000000000000000e+00 0.0000000000000000e+00 0.0000000000000000e+00  0.0000000000000000e+00 0.0000000000000000e+00 0.0000000000000000e+00  -7.2275589065562383e-03 -8.6631723178246076e-04 0.0000000000000000e+00  -1.4633834155880742e-02 -1.7560207761397890e-03 0.0000000000000000e+00  -2.2406792003342259e-02 -2.6920717170415228e-03 0.0000000000000000e+00  -3.0753108941850422e-02 -3.6963571950041217e-03 0.0000000000000000e+00  -3.1103846328906930e-02 -1.5545401539574220e-03 0.0000000000000000e+00  -3.0762792771022805e-02 5.8419103539764767e-04 0.0000000000000000e+00  -2.0023457319985175e-02 2.9700789296540508e-04 0.0000000000000000e+00  -9.8020971388754971e-03 1.0843025812579803e-04 0.0000000000000000e+00  1.6961905415371163e-04 1.6689775972449794e-05 0.0000000000000000e+00  1.0147129924717122e-02 1.9488990142440467e-05 0.0000000000000000e+00  2.0385565427967343e-02 1.1412173625131439e-04 0.0000000000000000e+00  3.1152067272577428e-02 2.9697399343188191e-04 0.0000000000000000e+00  3.1514111116186821e-02 -1.7853592477578601e-03 0.0000000000000000e+00  3.1174150057348395e-02 -3.8618002760753552e-03 0.0000000000000000e+00  2.2714567142377944e-02 -2.8081340757487032e-03 0.0000000000000000e+00  1.4835066144491869e-02 -1.8297983199903407e-03 0.0000000000000000e+00  7.3268080155403370e-03 -9.0217385601279161e-04 0.0000000000000000e+00  0.0000000000000000e+00 0.0000000000000000e+00 0.0000000000000000e+00  0.0000000000000000e+00 0.0000000000000000e+00 0.0000000000000000e+00  -7.8502752703542098e-03 -4.9020250382374663e-04 0.0000000000000000e+00  -1.5909067196801775e-02 -9.8676379026009812e-04 0.0000000000000000e+00  -2.4392872513089223e-02 -1.4953469550155161e-03 0.0000000000000000e+00  -3.3534226064027249e-02 -2.0201956675930579e-03 0.0000000000000000e+00  -3.3935589813226044e-02 -1.5564375889204011e-03 0.0000000000000000e+00  -3.3537665750561024e-02 -1.0956194487403586e-03 0.0000000000000000e+00  -2.1828601170896279e-02 -1.2264471127168260e-03 0.0000000000000000e+00  -1.0711299469491183e-02 -1.3269091383426525e-03 0.0000000000000000e+00  1.1671456710702817e-04 -1.3959938006649145e-03 0.0000000000000000e+00  1.0947064109333007e-02 -1.4349147561211577e-03 0.0000000000000000e+00  2.2071209940076282e-02 -1.4470366756123081e-03 0.0000000000000000e+00  3.3791151952367822e-02 -1.4380663641684252e-03 0.0000000000000000e+00  3.4196307943934613e-02 -1.8279701596808963e-03 0.0000000000000000e+00  3.3799823648829719e-02 -2.2135439859139070e-03 0.0000000000000000e+00  2.4589551710986306e-02 -1.6338552390885320e-03 0.0000000000000000e+00  1.6038942890454582e-02 -1.0760094588592468e-03 0.0000000000000000e+00  7.9148117004771545e-03 -5.3390066019999149e-04 0.0000000000000000e+00  -1.1582310439208169e-10 1.7608441632253598e-09 0.0000000000000000e+00  0.0000000000000000e+00 0.0000000000000000e+00 0.0000000000000000e+00  -7.6381502185581991e-03 -8.8677267156767267e-05 0.0000000000000000e+00  -1.5482601086724338e-02 -1.6943636115381605e-04 0.0000000000000000e+00  -2.3746012021865555e-02 -2.3357691168947610e-04 0.0000000000000000e+00  -3.2654063720219798e-02 -2.7082137825499707e-04 0.0000000000000000e+00  -3.3046835363303620e-02 -1.5753133043066166e-03 0.0000000000000000e+00  -3.2654841349862788e-02 -2.8825494049978181e-03 0.0000000000000000e+00  -2.1269897267961364e-02 -2.8712638465348446e-03 0.0000000000000000e+00  -1.0464839338879544e-02 -2.8876407306217306e-03 0.0000000000000000e+00  5.4460825981818502e-05 -2.9292142204572786e-03 0.0000000000000000e+00  1.0573305656130518e-02 -2.9964101561537012e-03 0.0000000000000000e+00  2.1376846597449917e-02 -3.0924898813463574e-03 0.0000000000000000e+00  3.2758766796802473e-02 -3.2235995965114992e-03 0.0000000000000000e+00  3.3147616697902407e-02 -1.8447838352116718e-03 0.0000000000000000e+00  3.2753761596613966e-02 -4.6295102759605318e-04 0.0000000000000000e+00  2.3823187092674263e-02 -3.7223308644052431e-04 0.0000000000000000e+00  1.5535129422261474e-02 -2.5930147018181512e-04 0.0000000000000000e+00  7.6647426097221343e-03 -1.3284100941668715e-04 0.0000000000000000e+00  0.0000000000000000e+00 0.0000000000000000e+00 0.0000000000000000e+00  0.0000000000000000e+00 0.0000000000000000e+00 0.0000000000000000e+00  -6.6000478482654548e-03 2.8116700844958475e-04 0.0000000000000000e+00  -1.3378647330937792e-02 5.8140377433374532e-04 0.0000000000000000e+00  -2.0517849363803933e-02 9.2058528630609821e-04 0.0000000000000000e+00  -2.8210509128477380e-02 1.3202018939157437e-03 0.0000000000000000e+00  -2.8547993928853023e-02 -1.6073757610061315e-03 0.0000000000000000e+00  -2.8210878097598716e-02 -4.5369945175115552e-03 0.0000000000000000e+00  -1.8394708253087384e-02 -4.4055824136053209e-03 0.0000000000000000e+00  -9.0767684897873797e-03 -4.3477281816243574e-03 0.0000000000000000e+00  -5.8989164121201789e-06 -4.3600881222689361e-03 0.0000000000000000e+00  9.0623292331410144e-03 -4.4425243286846392e-03 0.0000000000000000e+00  1.8372199983215466e-02 -4.5979992069458729e-03 0.0000000000000000e+00  2.8174375434158121e-02 -4.8325446272265244e-03 0.0000000000000000e+00  2.8500027072669451e-02 -1.8400772612805227e-03 0.0000000000000000e+00  2.8157253702029122e-02 1.1547256349386968e-03 0.0000000000000000e+00  2.0484107441520530e-02 8.0050365858969031e-04 0.0000000000000000e+00  1.3359059026803259e-02 5.0326783944299586e-04 0.0000000000000000e+00  6.5913879115046354e-03 2.4267445206320974e-04 0.0000000000000000e+00  0.0000000000000000e+00 0.0000000000000000e+00 0.0000000000000000e+00  0.0000000000000000e+00 0.0000000000000000e+00 0.0000000000000000e+00  -4.8497697955551880e-03 5.7473982193074525e-04 0.0000000000000000e+00  -9.8296690711877303e-03 1.1764704714910998e-03 0.0000000000000000e+00  -1.5073030924418387e-02 1.8329926765423173e-03 0.0000000000000000e+00  -2.0719772472376882e-02 2.5737416570408020e-03 0.0000000000000000e+00  -2.0966828719090481e-02 -1.6486344248552050e-03 0.0000000000000000e+00  -2.0721723520902895e-02 -5.8723391064200315e-03 0.0000000000000000e+00  -1.3529749573493788e-02 -5.6464565986406121e-03 0.0000000000000000e+00  -6.7017449892153910e-03 -5.5272483020431789e-03 0.0000000000000000e+00  -5.5568954647896203e-05 -5.5109501148418788e-03 0.0000000000000000e+00  6.5863695256787695e-03 -5.5967862029714733e-03 0.0000000000000000e+00  1.3401552211629825e-02 -5.7875448279789870e-03 0.0000000000000000e+00  2.0571416339036093e-02 -6.0886927342869955e-03 0.0000000000000000e+00  2.0799082800068713e-02 -1.8185100538936118e-03 0.0000000000000000e+00  2.0543714992817024e-02 2.4532567394406567e-03 0.0000000000000000e+00  1.4950025822103337e-02 1.7452896841286287e-03 0.0000000000000000e+00  9.7519003710471244e-03 1.1192686131517558e-03 0.0000000000000000e+00  4.8121591852393498e-03 5.4651901006031204e-04 0.0000000000000000e+00  0.0000000000000000e+00 0.0000000000000000e+00 0.0000000000000000e+00  0.0000000000000000e+00 0.0000000000000000e+00 0.0000000000000000e+00  -2.5779899744984643e-03 7.6036222075736876e-04 0.0000000000000000e+00  -5.2250208063437638e-03 1.5523756182060195e-03 0.0000000000000000e+00  -8.0118445796081243e-03 2.4085045502570636e-03 0.0000000000000000e+00  -1.1012489024430815e-02 3.3628445270938441e-03 0.0000000000000000e+00  -1.1145727334672168e-02 -1.6948102124001478e-03 0.0000000000000000e+00  -1.1017649238392296e-02 -6.7529884312877890e-03 0.0000000000000000e+00  -7.2117343342152293e-03 -6.4608640301574965e-03 0.0000000000000000e+00  -3.6006874198646257e-03 -6.2956575178271957e-03 0.0000000000000000e+00  -8.8154491363698180e-05 -6.2532590742826527e-03 0.0000000000000000e+00  3.4191941359873815e-03 -6.3325078061408600e-03 0.0000000000000000e+00  7.0145596723120152e-03 -6.5354970345180797e-03 0.0000000000000000e+00  1.0793187142677556e-02 -6.8675162355025295e-03 0.0000000000000000e+00  1.0900226408185476e-02 -1.7844756612025957e-03 0.000000000000000