<?xml version="1.0"?>
<VTKFile type="UnstructuredGrid"  version="0.1"  >
<UnstructuredGrid>
<Piece  NumberOfPoints="589" NumberOfCells="1080">
<Points>
<DataArray  type="Float64"  NumberOfComponents="3"  format="ascii">-9 0 0  -8 0 0  -7 0 0  -6 0 0  -5 0 0  -4 0 0  -3 0 0  -2 0 0  -1 0 0  0 0 0  1 0 0  2 0 0  3 0 0  4 0 0  5 0 0  6 0 0  7 0 0  8 0 0  9 0 0  -9 2 0  -8.000006216732533 1.999990685204971 0  -7.000013022909402 1.999982523497557 0  -6.000021827166542 1.99997645196297 0  -5.000035868794789 1.999972884564627 0  -4.000021219601267 1.999979742994522 0  -3.000006185472081 1.999986266976995 0  -1.999998871111269 1.999992400316233 0  -0.999997683796272 1.999997253097597 0  -3.296509314562504e-07 1.999999397940249 0  0.9999967300842579 1.999997966725521 0  1.999996925527044 1.99999332281342 0  3.000002549881382 1.999987647419928 0  4.000014286818187 1.999981641936589 0  5.00003126859976 1.999979397927939 0  6.000018792746802 1.999980126661739 0  7.000011159275354 1.999984618995963 0  8.000005328551826 1.999991659979989 0  9 2 0  -9 4 0  -8.000010075570321 3.999976758552426 0  -7.000018053519623 3.99995668667175 0  -6.000022704796925 3.999942887581432 0  -5.000024276242871 3.999938316528279 0  -4.000002942113492 3.999941599432553 0  -2.999988652873661 3.99996002596544 0  -1.999984957496196 3.999983985298232 0  -0.9999904548526363 4.000003272252648 0  -9.55408236502979e-07 4.000011089377812 0  0.999988309975708 4.000005136502232 0  1.99998201392091 3.999988942594034 0  2.999984826436572 3.999967039394284 0  3.999998169518007 3.999945103371646 0  5.000018658932582 3.999938067420899 0  6.000018215879635 3.999945199234014 0  7.000015107443939 3.999959043903983 0  8.00000864822371 3.999978124347767 0  9 4 0  -9 6 0  -8.000022324261824 5.999950156053925 0  -7.0000363907607 5.999905760925188 0  -6.00003590175268 5.999872413210068 0  -5.000019058298956 5.999855471046685 0  -3.999977401365316 5.999882861049173 0  -2.999958501649297 5.99993990832036 0  -1.99996610072822 5.999999673299223 0  -0.9999848759361464 6.000032876811703 0  -3.8387704173103e-06 6.000039581035285 0  0.9999791389134516 6.000028943612495 0  1.999966163001785 5.999999442107038 0  2.999961245560811 5.999949588463033 0  3.999970955497582 5.999897967511658 0  5.00000625352463 5.999872588820971 0  6.00002830049262 5.999883422431843 0  7.00003245809928 5.999912528060261 0  8.000020722966687 5.999953410101078 0  9 6 0  -9 8 0  -8.000067596772979 7.999901769471209 0  -7.000112945748466 7.999810657551363 0  -6.000114513997518 7.99973632849295 0  -5.000053921422559 7.999694699736643 0  -3.999973162365747 7.999820850039534 0  -2.999988307611518 7.999969026088388 0  -2.000018868551654 8.000041118549905 0  -1.000021626496899 8.000049175274585 0  -3.6913456124659e-06 8.000051496826552 0  1.00000975162712 8.000058743220539 0  2.000004231823291 8.000028909437329 0  2.99996926187635 7.99997813597308 0  3.99995738795554 7.999852011490079 0  5.000036264294772 7.999709656449747 0  6.000109933980267 7.999748573994035 0  7.00011336993221 7.999818919096374 0  8.000068740702529 7.999905873859173 0  9 8 0  -9 10 0  -8.000201803770048 9.999824954089577 0  -7.00036456341485 9.999648493354005 0  -6.000441711931077 9.999469559122041 0  -5.000368427010949 9.999287934616806 0  -4.000240163386716 9.999695751275766 0  -3.000261648675254 10.0000463136691 0  -2.000210041894339 9.999985426171012 0  -1.000097556437445 9.999965890960562 0  -1.487298635285719e-05 9.999961128397313 0  1.000067051570565 9.999961544383799 0  2.000176041838291 9.999959541765575 0  3.000271995462766 10.00008511880718 0  4.000259940840808 9.999755245308204 0  5.000404730072812 9.999319842483205 0  6.000472382042184 9.99948810796098 0  7.000386466696999 9.999658923157519 0  8.000213154892577 9.999829684778707 0  9 10 0  -9 12 0  -8.000491923903144 11.99975389575797 0  -7.00095819560189 11.99949638816702 0  -6.001369812398858 11.99921383824455 0  -5.001690806988093 11.9988872212701 0  -4.001624964302556 11.99963185234166 0  -3.001684707402966 12.0003691148062 0  -2.001160018847877 12.00027947669253 0  -1.000575484346557 12.00023063231284 0  3.185503057650871e-05 12.00022053624255 0  1.000645486419997 12.00025068196662 0  2.001251538435054 12.00032995232032 0  3.001822652668938 12.00048062410341 0  4.001759880329771 11.99968851536456 0  5.001801581680017 11.99888989372801 0  6.00144850776852 11.999217655997 0  7.001008853609813 11.99949927221303 0  8.000516760860869 11.99975536220458 0  9 12 0  -9 14 0  -8.000884108165453 13.99972856164505 0  -7.001769575264724 13.99944464414238 0  -6.002658909599929 13.99913466580721 0  -5.003557612761602 13.99878288255145 0  -4.003566615962331 13.99965472537297 0  -3.003572440879338 14.00053759165275 0  -2.00235040617139 14.00041055572994 0  -1.001145085173548 14.00034056038402 0  5.353632181307628e-05 14.000319141783 0  1.001255026754075 14.00034352271696 0  2.002468288710197 14.00041504710478 0  3.003700327391285 14.0005376162145 0  4.003710062562205 13.99965793373475 0  5.003715410923311 13.99878373369005 0  6.002769656375342 13.99913221263846 0  7.001840235375216 13.99944197978501 0  8.000918566169897 13.99972698717314 0  9 14 0  -9 16 0  -8.00127011225819 15.99975321817562 0  -7.002564259961437 15.99949730000438 0  -6.003908558262594 15.99922294839539 0  -5.005333385255795 15.99892069539811 0  -4.005383818419115 15.99966653815833 0  -3.005336447544483 16.00040845198982 0  -2.00347586065655 16.00031406825092 0  -1.001688733734505 16.00025666116522 0  6.376749205336938e-05 16.00023498191851 0  1.001818365980938 16.00024821512867 0  2.003611807178133 16.00029638723218 0  3.005483189352532 16.00038018105574 0  4.005536770769816 15.9996354732452 0  5.005489997108667 15.99889019161469 0  6.004023275072703 15.99920190556197 0  7.002639280331209 15.99948392859215 0  8.001307166787015 15.99974669671974 0  9 16 0  -9 18 0  -8.001559184060987 17.99981443975719 0  -7.003156936236537 17.99962376770344 0  -6.004833829438026 17.99942296232206 0  -5.006634435134305 17.99920720713135 0  -4.006710855477849 17.99966962784305 0  -3.006637492949255 18.00013145402843 0  -2.004309936096522 18.00007016639528 0  -1.002095035102953 18.00003035887145 0  6.555888542782195e-05 18.00001167428367 0  1.002227370754121 18.0000136425534 0  2.004445847899134 18.00003571003996 0  3.006779068227962 18.00007713030589 0  4.006856895139065 17.99961862437874 0  5.006782803191223 17.99916146837914 0  6.004943475399222 17.99939054762429 0  7.003229225980272 17.99960301101756 0  8.001595081926421 17.99980430711856 0  9 18 0  -9 20 0  -8.001693254197262 19.99989609664273 0  -7.003431606345331 19.99979078803899 0  -6.005261879009476 19.99968281859099 0  -5.007234345807019 19.99957122857578 0  -4.00732169659127 19.99967003512869 0  -3.007235704283274 19.99976819748815 0  -2.004696165063298 19.99974070663542 0  -1.002285428480117 19.99971993837666 0  6.241850464065012e-05 19.99970612739767 0  1.002410900950514 19.99969903278914 0  2.004823509734039 19.99969795452818 0  3.007366063425274 19.99970169193642 0  4.007453707114736 19.99961020915641 0  5.007367240901593 19.99951966458154 0  6.005360779841692 19.99964570576805 0  7.003497162580613 19.99976678815798 0  8.001725916878238 19.99988431886799 0  8.999999999995476 19.99999999999313 0  -9 22 0  -8.001646258184886 21.9999833607665 0  -7.003337159849023 21.99996844878196 0  -6.005118751711312 21.99995716018508 0  -5.007039878254554 21.99995173235643 0  -4.007125483240806 21.99966685717983 0  -3.007040713456451 21.99938127762489 0  -2.004569997489833 21.99938447863784 0  -1.002225591456013 21.99938182168355 0  5.672876662776075e-05 21.99937384760381 0  1.002339236279545 21.99936047986195 0  2.004684180015385 21.99934103610499 0  3.007155713174591 21.99931421659624 0  4.007240019338341 21.99960750794313 0  5.007153854371511 21.99990135453775 0  6.005204223983592 21.99992069152628 0  7.003394121469547 21.99994475831246 0  8.001674728221195 21.9999717019268 0  9 22 0  -9 24 0  -8.0014199956385 24.00006371648798 0  -7.002878486741563 24.00013161531258 0  -6.004415047764098 24.00020805312788 0  -5.006071361062486 24.00029774461863 0  -4.006145205960865 23.99966040454357 0  -3.00607254151824 23.99902244216387 0  -2.00394132096138 23.99905157497223 0  -1.00191867205967 23.99906487169393 0  5.035311918078429e-05 23.99906303922476 0  1.00201922033964 23.99904611960452 0  2.0040413755552 23.99901349297668 0  3.006171709509634 23.99896387276077 0  4.006242210608253 23.99960911168301 0  5.006166763810468 24.000254689735 0  6.004487168789296 24.00017674303657 0  7.002926822834288 24.00011120923319 0  8.001444234396471 24.00005365384608 0  9 24 0  -9 26 0  -8.001038967071898 26.00012735707518 0  -7.002105974943417 26.00026063456934 0  -6.003229823917519 26.00040592979255 0  -5.004440710108169 26.0005697051596 0  -4.004495172558372 25.99965120159516 0  -3.00444284038253 25.99873222350987 0  -2.002880983239374 25.99878176938168 0  -1.001398449547395 25.99880819213026 0  4.472110584053558e-05 25.99881232948814 0  1.001487478602608 25.99879433014242 0  2.002968752952645 25.99875365483629 0  3.004528446248058 25.99868907369 0  4.004577394412502 25.99961368228825 0  5.004520577398902 26.0005384593135 0  6.003290739605879 26.00038314473569 0  7.002147052575085 26.00024575348344 0  8.001059639308449 26.0001200090567 0  9 26 0  -9 28 0  -8.00054486067771 28.00016733224185 0  -7.001104431011213 28.00034159212352 0  -6.001693846182353 28.00052988672257 0  -5.002328919673219 28.00073968712163 0  -4.002358805721435 27.99964014474643 0  -3.002332247182316 27.99854036059124 0  -2.001505927151094 27.99860419722874 0  -1.000721940766592 27.99864039060853 0  4.085662995772547e-05 27.99864989705337 0  1.000803075442014 27.99863296852509 0  2.001585303812907 27.99858915350572 0  3.002408621216302 27.99851729566841 0  4.002431061050682 27.999620230264 0  5.002398378227038 28.00072324699134 0  6.00174725153063 28.00051787317694 0  7.001140643862688 28.00033373335306 0  8.000563144617962 28.000163447366
[...]
<PointData  Vectors="f_44-2"> 
<DataArray  type="Float64"  Name="f_44-2"  NumberOfComponents="3" format="ascii">0.0000000000000000e+00 0.0000000000000000e+00 0.0000000000000000e+00  0.0000000000000000e+00 0.0000000000000000e+00 0.0000000000000000e+00  0.0000000000000000e+00 0.0000000000000000e+00 0.0000000000000000e+00  0.0000000000000000e+00 0.0000000000000000e+00 0.0000000000000000e+00  0.0000000000000000e+00 0.0000000000000000e+00 0.0000000000000000e+00  0.0000000000000000e+00 0.0000000000000000e+00 0.0000000000000000e+00  0.0000000000000000e+00 0.0000000000000000e+00 0.0000000000000000e+00  0.0000000000000000e+00 0.0000000000000000e+00 0.0000000000000000e+00  0.0000000000000000e+00 0.0000000000000000e+00 0.0000000000000000e+00  0.0000000000000000e+00 0.0000000000000000e+00 0.0000000000000000e+00  0.0000000000000000e+00 0.0000000000000000e+00 0.0000000000000000e+00  0.0000000000000000e+00 0.0000000000000000e+00 0.0000000000000000e+00  0.0000000000000000e+00 0.0000000000000000e+00 0.0000000000000000e+00  0.0000000000000000e+00 0.0000000000000000e+00 0.0000000000000000e+00  0.0000000000000000e+00 0.0000000000000000e+00 0.0000000000000000e+00  0.0000000000000000e+00 0.0000000000000000e+00 0.0000000000000000e+00  0.0000000000000000e+00 0.0000000000000000e+00 0.0000000000000000e+00  0.0000000000000000e+00 0.0000000000000000e+00 0.0000000000000000e+00  0.0000000000000000e+00 0.0000000000000000e+00 0.0000000000000000e+00  0.0000000000000000e+00 0.0000000000000000e+00 0.0000000000000000e+00  -3.5332138182019050e-05 -5.1152723962771372e-05 0.0000000000000000e+00  -7.4376387924910260e-05 -9.6322457855463507e-05 0.0000000000000000e+00  -1.2536689749459824e-04 -1.3069303487177244e-04 0.0000000000000000e+00  -2.0671227895449881e-04 -1.5228707997167829e-04 0.0000000000000000e+00  -1.2587879070996189e-04 -1.1297486828703261e-04 0.0000000000000000e+00  -4.1843109728395321e-05 -7.7373645005593457e-05 0.0000000000000000e+00  3.6066883432197858e-07 -4.4712118580983982e-05 0.0000000000000000e+00  9.9359642572182064e-06 -1.8986588696968802e-05 0.0000000000000000e+00  -7.9930265433302478e-07 -7.8028086371333492e-06 0.0000000000000000e+00  -1.2899862999846630e-05 -1.5757847814546993e-05 0.0000000000000000e+00  -7.9603208842518616e-06 -4.1042852744352274e-05 0.0000000000000000e+00  2.6534438752698338e-05 -7.2309491165537904e-05 0.0000000000000000e+00  9.4766019359428103e-05 -1.0643344454715564e-04 0.0000000000000000e+00  1.9305695798491618e-04 -1.2219711479364672e-04 0.0000000000000000e+00  1.1710103757688582e-04 -1.1531551858757089e-04 0.0000000000000000e+00  6.9658343630192162e-05 -8.8237254151177862e-05 0.0000000000000000e+00  3.3199485022344429e-05 -4.7571407672434800e-05 0.0000000000000000e+00  0.0000000000000000e+00 0.0000000000000000e+00 0.0000000000000000e+00  0.0000000000000000e+00 0.0000000000000000e+00 0.0000000000000000e+00  -5.5814499541030731e-05 -1.2623194175417018e-04 0.0000000000000000e+00  -1.0096792290804392e-04 -2.3583745469248340e-04 0.0000000000000000e+00  -1.2931356349374471e-04 -3.1248998437870983e-04 0.0000000000000000e+00  -1.4231168743098231e-04 -3.4051900753650388e-04 0.0000000000000000e+00  -2.6387897789872833e-05 -3.2338482622648552e-04 0.0000000000000000e+00  5.2779692361079490e-05 -2.2583682235971053e-04 0.0000000000000000e+00  7.6403257330164291e-05 -9.8768411805277894e-05 0.0000000000000000e+00  5.1818854856970386e-05 3.1830959067890157e-06 0.0000000000000000e+00  8.6561378739982799e-07 4.4104719664175092e-05 0.0000000000000000e+00  -5.1215004619890960e-05 1.1586024386122596e-05 0.0000000000000000e+00  -7.9501859768938088e-05 -7.5985886744425079e-05 0.0000000000000000e+00  -5.9062304348929872e-05 -1.9478832195440372e-04 0.0000000000000000e+00  1.7525462469581926e-05 -3.1479593010117022e-04 0.0000000000000000e+00  1.3143912251654610e-04 -3.5702934101418881e-04 0.0000000000000000e+00  1.2014768083680128e-04 -3.1141409376610294e-04 0.0000000000000000e+00  9.5379767510536675e-05 -2.3081894946054554e-04 0.0000000000000000e+00  5.3359108101790908e-05 -1.2275895550602212e-04 0.0000000000000000e+00  0.0000000000000000e+00 0.0000000000000000e+00 0.0000000000000000e+00  0.0000000000000000e+00 0.0000000000000000e+00 0.0000000000000000e+00  -1.1893445758124889e-04 -2.6779043127091943e-04 0.0000000000000000e+00  -1.9479021265065820e-04 -5.0713999603852584e-04 0.0000000000000000e+00  -1.9465063422956081e-04 -6.8875763294834881e-04 0.0000000000000000e+00  -1.0898265280407553e-04 -7.8440739490415494e-04 0.0000000000000000e+00  1.1412003291120428e-04 -6.4121304748259063e-04 0.0000000000000000e+00  2.1757902957346808e-04 -3.4105410046578384e-04 0.0000000000000000e+00  1.8225404633185875e-04 -2.6329561726263413e-05 0.0000000000000000e+00  8.8013728283127949e-05 1.4892351911209811e-04 0.0000000000000000e+00  -7.6071597610567375e-06 1.8416103658297511e-04 0.0000000000000000e+00  -9.3233737360534115e-05 1.2672785611623618e-04 0.0000000000000000e+00  -1.5741408771748864e-04 -3.1625243042279895e-05 0.0000000000000000e+00  -1.7896871789275620e-04 -2.9893243447121201e-04 0.0000000000000000e+00  -1.2295224820202858e-04 -5.7650388316099574e-04 0.0000000000000000e+00  6.9116938509456761e-05 -7.1473128088246434e-04 0.0000000000000000e+00  1.7710012479802063e-04 -6.4740976450243786e-04 0.0000000000000000e+00  1.9010514900818788e-04 -4.8323405445967221e-04 0.0000000000000000e+00  1.1886203229775011e-04 -2.5671755129797380e-04 0.0000000000000000e+00  0.0000000000000000e+00 0.0000000000000000e+00 0.0000000000000000e+00  0.0000000000000000e+00 0.0000000000000000e+00 0.0000000000000000e+00  -3.5429500007315727e-04 -5.2299123296337276e-04 0.0000000000000000e+00  -5.9254827106761229e-04 -1.0092400018361332e-03 0.0000000000000000e+00  -6.0207510738849999e-04 -1.4087683788853679e-03 0.0000000000000000e+00  -2.8574373375035342e-04 -1.6389807675243609e-03 0.0000000000000000e+00  1.4066294330997527e-04 -9.7723227984787900e-04 0.0000000000000000e+00  6.7143081948702480e-05 -2.0001072670035059e-04 0.0000000000000000e+00  -8.7417718144782594e-05 1.7967847722592228e-04 0.0000000000000000e+00  -9.6533096912142339e-05 2.2459091799552827e-04 0.0000000000000000e+00  2.1802237473961206e-06 2.3788729246378395e-04 0.0000000000000000e+00  7.6882305100162555e-05 2.7581281107120549e-04 0.0000000000000000e+00  5.0462798352640818e-05 1.1583780645596907e-04 0.0000000000000000e+00  -1.3153549766761852e-04 -1.5751223874903333e-04 0.0000000000000000e+00  -1.8973902453129615e-04 -8.3078300143423476e-04 0.0000000000000000e+00  2.3332533461142054e-04 -1.5903176051906430e-03 0.0000000000000000e+00  6.1387282526180573e-04 -1.3706431631106445e-03 0.0000000000000000e+00  6.2171697397491105e-04 -9.8487513801932174e-04 0.0000000000000000e+00  3.7474930585409077e-04 -5.1137636774261990e-04 0.0000000000000000e+00  0.0000000000000000e+00 0.0000000000000000e+00 0.0000000000000000e+00  0.0000000000000000e+00 0.0000000000000000e+00 0.0000000000000000e+00  -1.0532144793062722e-03 -9.2467143544443296e-04 0.0000000000000000e+00  -1.9043788810483952e-03 -1.8574451187631552e-03 0.0000000000000000e+00  -2.3123097261720754e-03 -2.8047920762329704e-03 0.0000000000000000e+00  -1.9402312021119992e-03 -3.7690212189924500e-03 0.0000000000000000e+00  -1.2694935913702859e-03 -1.6434448930667991e-03 0.0000000000000000e+00  -1.3704224398376332e-03 1.8424144541470642e-04 0.0000000000000000e+00  -1.0881110419457170e-03 -1.2551600249305627e-04 0.0000000000000000e+00  -4.9224088244127491e-04 -2.2499053591780937e-04 0.0000000000000000e+00  -5.0848647131192361e-05 -2.4930287469920485e-04 0.0000000000000000e+00  3.8766496552658714e-04 -2.4785359425477058e-04 0.0000000000000000e+00  9.7011352545583053e-04 -2.6104431189716358e-04 0.0000000000000000e+00  1.4870377084612659e-03 3.9759925811466246e-04 0.0000000000000000e+00  1.4283539085512900e-03 -1.3542924751015907e-03 0.0000000000000000e+00  2.1961206499481840e-03 -3.6649255996373370e-03 0.0000000000000000e+00  2.5401551214502128e-03 -2.7572442034699343e-03 0.0000000000000000e+00  2.0717504653409448e-03 -1.8368758202382286e-03 0.0000000000000000e+00  1.1412241270899565e-03 -9.1718784629860213e-04 0.0000000000000000e+00  0.0000000000000000e+00 0.0000000000000000e+00 0.0000000000000000e+00  0.0000000000000000e+00 0.0000000000000000e+00 0.0000000000000000e+00  -2.5575251258598674e-03 -1.2928990630998493e-03 0.0000000000000000e+00  -4.9845585747525902e-03 -2.6455980051348043e-03 0.0000000000000000e+00  -7.1338303853461689e-03 -4.1296509565446286e-03 0.0000000000000000e+00  -8.8223349422404118e-03 -5.8448045983137669e-03 0.0000000000000000e+00  -8.4873746807540926e-03 -1.9893376834741782e-03 0.0000000000000000e+00  -8.7926535184908953e-03 1.8264373837073033e-03 0.0000000000000000e+00  -5.9997585998039227e-03 1.3657527585752864e-03 0.0000000000000000e+00  -2.9112429115265501e-03 1.1190268592112793e-03 0.0000000000000000e+00  2.8713827342346073e-04 1.0749468757943229e-03 0.0000000000000000e+00  3.5144644940647294e-03 1.2416081231981719e-03 0.0000000000000000e+00  6.7026808209645359e-03 1.6665300932208681e-03 0.0000000000000000e+00  9.7127474487667537e-03 2.4686349109308962e-03 0.0000000000000000e+00  9.3815525591418054e-03 -1.7198697983569246e-03 0.0000000000000000e+00  9.5975976195795069e-03 -5.9438325619245187e-03 0.0000000000000000e+00  7.7097861199086747e-03 -4.1922844121027010e-03 0.0000000000000000e+00  5.3670627957087911e-03 -2.6847317635992933e-03 0.0000000000000000e+00  2.7485250095722145e-03 -1.3121161516547678e-03 0.0000000000000000e+00  0.0000000000000000e+00 0.0000000000000000e+00 0.0000000000000000e+00  0.0000000000000000e+00 0.0000000000000000e+00 0.0000000000000000e+00  -4.5780169013165733e-03 -1.4207506353518995e-03 0.0000000000000000e+00  -9.1665257089467642e-03 -2.9062990247973796e-03 0.0000000000000000e+00  -1.3782584642887476e-02 -4.5271352962736660e-03 0.0000000000000000e+00  -1.8459447134932500e-02 -6.3649206989341870e-03 0.0000000000000000e+00  -1.8516841150909510e-02 -1.8864663395749841e-03 0.0000000000000000e+00  -1.8539873464620625e-02 2.6490728222672128e-03 0.0000000000000000e+00  -1.2104828577556494e-02 2.0033711036192029e-03 0.0000000000000000e+00  -5.7744485169826214e-03 1.6543871865504615e-03 0.0000000000000000e+00  5.1065766196847274e-04 1.5580363681532801e-03 0.0000000000000000e+00  6.8062549200902907e-03 1.7002089898020690e-03 0.0000000000000000e+00  1.3164053756355818e-02 2.0885191103219114e-03 0.0000000000000000e+00  1.9625901887792389e-02 2.7439973453116766e-03 0.0000000000000000e+00  1.9675921323890379e-02 -1.8957893876145884e-03 0.0000000000000000e+00  1.9699147307751425e-02 -6.5067018201282016e-03 0.0000000000000000e+00  1.4684996520975291e-02 -4.6467388187762812e-03 0.0000000000000000e+00  9.7573607065805246e-03 -2.9900972764646421e-03 0.0000000000000000e+00  4.8706337069069202e-03 -1.4635384245743871e-03 0.0000000000000000e+00  0.0000000000000000e+00 0.0000000000000000e+00 0.0000000000000000e+00  0.0000000000000000e+00 0.0000000000000000e+00 0.0000000000000000e+00  -6.5486621991144196e-03 -1.2886317584705014e-03 0.0000000000000000e+00  -1.3225317106436412e-02 -2.6241971474317222e-03 0.0000000000000000e+00  -2.0167239583677495e-02 -4.0543400466135759e-03 0.0000000000000000e+00  -2.7535781997077197e-02 -5.6275100708189259e-03 0.0000000000000000e+00  -2.7805532037973126e-02 -1.8406773593628452e-03 0.0000000000000000e+00  -2.7553631173529516e-02 1.9258434598697649e-03 0.0000000000000000e+00  -1.7811699956530324e-02 1.4604647137480911e-03 0.0000000000000000e+00  -8.4655020259795481e-03 1.1843282943812461e-03 0.0000000000000000e+00  6.9259984869248360e-04 1.0916517498997279e-03 0.0000000000000000e+00  9.8588661234840953e-03 1.1788263962166502e-03 0.0000000000000000e+00  1.9229427667720879e-02 1.4463770208043296e-03 0.0000000000000000e+00  2.9012914167862638e-02 1.8979515982895196e-03 0.0000000000000000e+00  2.9292412510291934e-02 -2.0255588777895253e-03 0.0000000000000000e+00  2.9043440885618863e-02 -5.9516817158799772e-03 0.0000000000000000e+00  2.1290406484732235e-02 -4.2847871448466884e-03 0.0000000000000000e+00  1.3969630449722908e-02 -2.7729457930349031e-03 0.0000000000000000e+00  6.9197883812921824e-03 -1.3617265949227575e-03 0.0000000000000000e+00  0.0000000000000000e+00 0.0000000000000000e+00 0.0000000000000000e+00  0.0000000000000000e+00 0.0000000000000000e+00 0.0000000000000000e+00  -8.0026208462567767e-03 -9.6858129712002795e-04 0.0000000000000000e+00  -1.6206072875696500e-02 -1.9629037131850499e-03 0.0000000000000000e+00  -2.4821532359965676e-02 -3.0081251606648555e-03 0.0000000000000000e+00  -3.4081035753248064e-02 -4.1282665873892408e-03 0.0000000000000000e+00  -3.4480413101151741e-02 -1.8352718937763553e-03 0.0000000000000000e+00  -3.4096473497628337e-02 4.5499031807332441e-04 0.0000000000000000e+00  -2.1960131942350667e-02 1.6678505718723682e-04 0.0000000000000000e+00  -1.0416390258095669e-02 -1.4193928838734973e-05 0.0000000000000000e+00  8.4146196779954173e-04 -8.8818428698697258e-05 0.0000000000000000e+00  1.2105488956969220e-02 -5.8859193458710111e-05 0.0000000000000000e+00  2.3667110323916614e-02 7.3113569433741319e-05 0.0000000000000000e+00  3.5831751128457601e-02 3.0316616293402646e-04 0.0000000000000000e+00  3.6237010068004609e-02 -2.1196447071400839e-03 0.0000000000000000e+00  3.5848399675725527e-02 -4.5349442838414061e-03 0.0000000000000000e+00  2.6139709495806768e-02 -3.3005451105730665e-03 0.0000000000000000e+00  1.7081162815939670e-02 -2.1520812328915157e-03 0.0000000000000000e+00  8.4390088570280644e-03 -1.0614994408155122e-03 0.0000000000000000e+00  0.0000000000000000e+00 0.0000000000000000e+00 0.0000000000000000e+00  0.0000000000000000e+00 0.0000000000000000e+00 0.0000000000000000e+00  -8.6455901007642111e-03 -5.4570144322438471e-04 0.0000000000000000e+00  -1.7523628939839234e-02 -1.0978251042274366e-03 0.0000000000000000e+00  -2.6875338401762403e-02 -1.6619315888483758e-03 0.0000000000000000e+00  -3.6959411148100592e-02 -2.2419456122076162e-03 0.0000000000000000e+00  -3.7410666393755947e-02 -1.8386875228413018e-03 0.0000000000000000e+00  -3.6965381849448857e-02 -1.4389474781064374e-03 0.0000000000000000e+00  -2.3767577052567608e-02 -1.5520825330652974e-03 0.0000000000000000e+00  -1.1238497971178946e-02 -1.6343621160689150e-03 0.0000000000000000e+00  9.6511710159504079e-04 -1.6837204307777794e-03 0.0000000000000000e+00  1.3174532354389487e-02 -1.7008248775877291e-03 0.0000000000000000e+00  2.5720661187324176e-02 -1.6889878839508109e-03 0.0000000000000000e+00  3.8946676169531104e-02 -1.6543831301011416e-03 0.0000000000000000e+00  3.9401453700001414e-02 -2.1641718103284665e-03 0.0000000000000000e+00  3.8950906113499037e-02 -2.6692699044598535e-03 0.0000000000000000e+00  2.8360676356770968e-02 -1.9720190576750177e-03 0.0000000000000000e+00  1.8509916341305863e-02 -1.2995898242014199e-03 0.0000000000000000e+00  9.1375485487853961e-03 -6.4509576180509615e-04 0.0000000000000000e+00  -2.5781406300654800e-10 0.0000000000000000e+00 0.0000000000000000e+00  0.0000000000000000e+00 0.0000000000000000e+00 0.0000000000000000e+00  -8.3516907668923553e-03 -9.7285544868363266e-05 0.0000000000000000e+00  -1.6931442465794186e-02 -1.8485985591976342e-04 0.0000000000000000e+00  -2.5974482889112509e-02 -2.5209598888662144e-04 0.0000000000000000e+00  -3.5729798489653936e-02 -2.8650013061222419e-04 0.0000000000000000e+00  -3.6169505278875504e-02 -1.8582351506430520e-03 0.0000000000000000e+00  -3.5735546660136945e-02 -3.4344592050674569e-03 0.0000000000000000e+00  -2.2929897491509255e-02 -3.3931493999060642e-03 0.0000000000000000e+00  -1.0773737894541294e-02 -3.3848793558687116e-03 0.0000000000000000e+00  1.0655724672454607e-03 -3.4062839259648833e-03 0.0000000000000000e+00  1.2910722702059630e-02 -3.4573101309790890e-03 0.0000000000000000e+00  2.5084373346846583e-02 -3.5411559194702671e-03 0.0000000000000000e+00  3.7919140739202259e-02 -3.6643234210309195e-03 0.0000000000000000e+00  3.8354117258078448e-02 -2.1769109085301515e-03 0.0000000000000000e+00  3.7905513244475143e-02 -6.8756699991560314e-04 0.0000000000000000e+00  2.7597292471989339e-02 -5.4427422396915732e-04 0.0000000000000000e+00  1.8009007742901369e-02 -3.7555918083261502e-04 0.0000000000000000e+00  8.8891230026624923e-03 -1.9140532867747457e-04 0.0000000000000000e+00  0.0000000000000000e+00 0.0000000000000000e+00 0.0000000000000000e+00  0.0000000000000000e+00 0.0000000000000000e+00 0.0000000000000000e+00  -7.1382849540136337e-03 3.1228498101297980e-04 0.0000000000000000e+00  -1.4470726680608448e-02 6.4673573470220094e-04 0.0000000000000000e+00  -2.2198955327625031e-02 1.0263377270507590e-03 0.0000000000000000e+00  -3.0532803797086710e-02 1.4761229582284830e-03 0.0000000000000000e+00  -3.0911923998662324e-02 -1.8954521434343822e-03 0.0000000000000000e+00  -3.0545570706659555e-02 -5.2715326549652476e-03 0.0000000000000000e+00  -1.9523138780920022e-02 -5.1032431287513658e-03 0.0000000000000000e+00  -9.0549018994415566e-03 -5.0178135781060017e-03 0.0000000000000000e+00  1.1433817173822484e-03 -5.0114853193344812e-03 0.0000000000000000e+00  1.1347727346703257e-02 -5.0837246261090782e-03 0.0000000000000000e+00  2.1834226532548604e-02 -5.2374170481283263e-03 0.0000000000000000e+00  3.2886540545423136e-02 -5.4788309112650709e-03 0.0000000000000000e+00  3.3247171101482141e-02 -2.1689160802615920e-03 0.0000000000000000e+00  3.2852139251282907e-02 1.1413217957770298e-03 0.0000000000000000e+00  2.3928695562473373e-02 7.8157221194596069e-04 0.0000000000000000e+00  1.5619333868112102e-02 4.8655501720409346e-04 0.0000000000000000e+00  7.7107677849066955e-03 2.3311445761992083e-04 0.0000000000000000e+00  0.0000000000000000e+00 0.0000000000000000e+00 0.0000000000000000e+00  0.0000000000000000e+00 0.0000000000000000e+00 0.0000000000000000e+00  -5.1362227177755232e-03 6.3333626763397192e-04 0.0000000000000000e+00  -1.0412654143086279e-02 1.2974505255391939e-03 0.0000000000000000e+00  -1.5973603985064051e-02 2.0240146693188549e-03 0.0000000000000000e+00  -2.1969651980424065e-02 2.8463808737096679e-03 0.0000000000000000e+00  -2.2251001362655901e-02 -1.9497239554770206e-03 0.0000000000000000e+00  -2.1993693026634821e-02 -6.7496015152556524e-03 0.0000000000000000e+00  -1.3930770951377302e-02 -6.4836888596015605e-03 0.0000000000000000e+00  -6.2688535404151115e-03 -6.3369609583373062e-03 0.0000000000000000e+00  1.1981380968153481e-03 -6.3050667884283077e-03 0.0000000000000000e+00  8.6712281637469479e-03 -6.3870488747858655e-03 0.0000000000000000e+00  1.6351500355240731e-02 -6.5856381861812523e-03 0.0000000000000000e+00  2.4445106486625495e-02 -6.9064670293391374e-03 0.0000000000000000e+00  2.4691891470236663e-02 -2.1494677789022417e-03 0.0000000000000000e+00  2.4389588294320971e-02 2.6069414838351393e-03 0.0000000000000000e+00  1.7778503599660107e-02 1.8484546000342541e-03 0.0000000000000000e+00  1.1611156067881467e-02 1.1823997914001563e-03 0.0000000000000000e+00  5.7339656099432952e-03 5.7640602185685325e-04 0.0000000000000000e+00  0.0000000000000000e+00 0.0000000000000000e+00 0.0000000000000000e+00  0.0000000000000000e+00 0.0000000000000000e+00 0.0000000000000000e+00  -2.5637307623886138e-03 8.3144228069428189e-04 0.0000000000000000e+00  -5.1990039684445570e-03 1.6984619325371136e-03 0.0000000000000000e+00  -7.9797637280159452e-03 2.6375267928861047e-03 0.0000000000000000e+00  -1.0982970015726637e-02 3.6869286739485067e-03 0.0000000000000000e+00  -1.1140749425984815e-02 -2.0165833434313283e-03 0.0000000000000000e+00  -1.1018680996013200e-02 -7.7222846994789152e-03 0.0000000000000000e+00  -6.7612473621652316e-03 -7.3902552006999021e-03 0.0000000000000000e+00  -2.7151802200047173e-03 -7.1995869286477013e-03 0.0000000000000000e+00  1.2298894926335868e-03 -7.1458489454879178e-03 0.0000000000000000e+00  5.1810139325147442e-03 -7.2276928977541878e-03 0.0000000000000000e+00  9.2452961150766323e-03 -7.4472689539819750e-03 0.0000000000000000e+00  1.3532604715530021e-02 -7.8101689800177858e-03 0.0000000000000000e+00  1.3641233059052151e-02 -2.1237711034162521e-03 0.0000000000000000e+