<?xml version="1.0"?>
<VTKFile type="UnstructuredGrid"  version="0.1"  >
<UnstructuredGrid>
<Piece  NumberOfPoints="589" NumberOfCells="1080">
<Points>
<DataArray  type="Float64"  NumberOfComponents="3"  format="ascii">-9 0 0  -8 0 0  -7 0 0  -6 0 0  -5 0 0  -4 0 0  -3 0 0  -2 0 0  -1 0 0  0 0 0  1 0 0  2 0 0  3 0 0  4 0 0  5 0 0  6 0 0  7 0 0  8 0 0  9 0 0  -9 2 0  -8.000000156455004 1.99999986921169 0  -7.000000336210197 1.999999740616747 0  -6.000000573915047 1.999999614280392 0  -5.00000093201364 1.999999484663709 0  -4.000000707867276 1.999999651724044 0  -3.000000443018878 1.999999737009053 0  -2.000000263840347 1.999999784953819 0  -1.000000130386652 1.999999820242836 0  -2.428196904925276e-08 1.999999834573041 0  1.000000079110358 1.999999825859165 0  2.000000202534987 1.999999795012606 0  3.000000365111331 1.999999748839457 0  4.000000579711274 1.99999968104096 0  5.000000860324659 1.999999606753534 0  6.000000528127676 1.999999678242681 0  7.000000308627312 1.99999977389533 0  8.000000143416148 1.99999988363729 0  9 2 0  -9 4 0  -8.000000219709186 3.999999729649982 0  -7.000000440621665 3.999999472199227 0  -6.000000666254949 3.999999241682184 0  -5.000000901727637 3.999999054869228 0  -4.000000658351873 3.999999092532667 0  -3.000000442006733 3.999999217464222 0  -2.000000269871431 3.999999379255294 0  -1.000000136514389 3.999999500040774 0  -3.009172953419958e-08 3.999999549302926 0  1.000000073965279 3.999999517629935 0  2.000000201445196 3.999999419149304 0  3.000000376029579 3.999999277743584 0  4.000000597104533 3.99999912973034 0  5.00000082434063 3.999999047881439 0  6.000000605468569 3.99999925983143 0  7.000000400097705 3.999999491433509 0  8.00000019965214 3.999999740791654 0  9 4 0  -9 6 0  -8.000000278150129 5.999999538491384 0  -7.000000526149933 5.999999096046993 0  -6.000000719237271 5.999998694267734 0  -5.000000847348694 5.999998358388048 0  -4.00000051476492 5.999998491528063 0  -3.000000288754545 5.999998788235166 0  -2.000000174446642 5.999999100322372 0  -1.000000113038994 5.999999283109343 0  -5.587345212950995e-08 5.999999331461882 0  1.000000013046105 5.999999271328809 0  2.000000106796355 5.999999110831824 0  3.000000230170392 5.999998853176617 0  4.000000410398266 5.999998586962107 0  5.000000708164801 5.999998465288466 0  6.000000628804726 5.999998762811948 0  7.0000004718669 5.999999137947587 0  8.000000252714402 5.999999558545361 0  9 6 0  -9 8 0  -8.00000045719222 7.999999271076301 0  -7.000000831328026 7.999998557234695 0  -6.000001032123398 7.99999788325539 0  -5.000000957288327 7.999997298579223 0  -4.000000503207527 7.999997884270703 0  -3.000000414345418 7.999998575401085 0  -2.000000403963317 7.999998946828785 0  -1.000000277039115 7.999999043141111 0  -7.164020482993791e-08 7.999999074600836 0  1.000000121892241 7.999999082710682 0  2.000000216552267 7.999998926776109 0  3.000000206959236 7.999998621678751 0  4.000000346073721 7.999998031155122 0  5.000000843389733 7.99999739988599 0  6.000000962451809 7.999997955344278 0  7.000000792494643 7.999998602613523 0  8.000000440024087 7.999999292871967 0  9 8 0  -9 10 0  -8.000000968458924 9.999998943333907 0  -7.000001829867789 9.999997858974682 0  -6.000002447529865 9.999996715032912 0  -5.000002612644716 9.999995469452427 0  -4.000002039690195 9.99999701781428 0  -3.000001828323402 9.999998397142067 0  -2.000001317113015 9.999998356390881 0  -1.000000668181721 9.999998342910198 0  -1.27680256450862e-07 9.999998342074186 0  1.000000410803581 9.999998327909818 0  2.000001042573714 9.999998269991798 0  3.000001765674269 9.999998535491283 0  4.000001983772866 9.999997211620208 0  5.000002579127494 9.999995585395594 0  6.000002452174082 9.999996780634483 0  7.000001843174806 9.999997895323768 0  8.000000977546975 9.999998959721076 0  9 10 0  -9 12 0  -8.000001907922263 11.99999872636547 0  -7.000003803389101 11.99999739904712 0  -6.000005673114353 11.99999595336875 0  -5.000007505377905 11.99999429879973 0  -4.000007355252325 11.99999654401104 0  -3.000007376656971 11.99999876497259 0  -2.000004834720224 11.99999848284219 0  -1.00000237815463 11.99999833855157 0  2.896884265251218e-08 11.99999830742621 0  1.000002461449688 11.99999838966413 0  2.000005004229346 11.99999862055356 0  3.00000773202797 11.99999909539501 0  4.000007761866936 11.99999666709713 0  5.000007819085885 11.99999423656091 0  6.000005870072903 11.99999592812638 0  7.000003920365345 11.9999973892041 0  8.0000019627436 11.99999872304519 0  9 12 0  -9 14 0  -8.000002897201604 13.99999872413345 0  -7.00000587986796 13.99999741256151 0  -6.000009048530984 13.99999602726993 0  -5.000012538494934 13.99999452664057 0  -4.000012671095257 13.9999964335129 0  -3.00001245123735 13.9999983859496 0  -2.000008010855713 13.99999805793775 0  -1.00000389036493 13.99999788153412 0  8.418882646796527e-08 13.99999781932705 0  1.000004070907748 13.99999785681478 0  2.000008225823993 13.99999799531158 0  3.000012713128502 13.99999824497181 0  4.000012980613692 13.99999635356311 0  5.000012897899046 13.999994494287 0  6.000009290733352 13.99999599757457 0  7.000006029203139 13.99999739203396 0  8.000002968421642 13.99999871391603 0  9 14 0  -9 16 0  -8.000003544615934 15.99999886472315 0  -7.000007212350167 15.99999772095524 0  -6.00001113872736 15.99999656252316 0  -5.000015484969483 15.99999538892767 0  -4.000015681927421 15.99999625461566 0  -3.000015375420481 15.99999710332283 0  -2.000009907445663 15.99999702660502 0  -1.000004818835136 15.99999696773373 0  9.0747821853189e-08 15.99999693245147 0  1.000005007583589 15.99999691993192 0  2.000010117881321 15.99999692541862 0  3.000015622368414 15.99999693898247 0  4.000015939754308 15.99999611567094 0  5.000015748168839 15.99999529363616 0  6.000011328831532 15.99999650233611 0  7.000007335034093 15.99999768517396 0  8.000003604653235 15.99999884797958 0  9 16 0  -9 18 0  -8.000003699552487 17.99999903927661 0  -7.00000751024937 17.99999808800514 0  -6.000011549449576 17.99999715842918 0  -5.000015946718652 17.9999962686669 0  -4.000016122190743 17.99999605162155 0  -3.000015864557126 17.99999583671824 0  -2.000010286594638 17.99999592393517 0  -1.000005031202496 17.99999595957788 0  6.829543276827284e-08 17.99999595452583 0  1.000005170418676 17.99999591102468 0  2.00001043319696 17.9999958232172 0  3.000016021680188 17.99999567644866 0  4.000016278296642 17.99999593314212 0  5.000016099192705 17.99999619805628 0  6.000011664754676 17.99999711054524 0  7.000007587189321 17.99999805844222 0  8.000003737969307 17.99999902518345 0  9 18 0  -9 20 0  -8.000003409908851 19.99999917602178 0  -7.000006894129487 19.99999836827197 0  -6.000010527879618 19.99999759507891 0  -5.000014387730065 19.99999687903026 0  -4.000014499525494 19.99999586738942 0  -3.000014331838615 19.99999485969703 0  -2.000009375474512 19.99999502756032 0  -1.00000461999067 19.99999511418781 0  3.534200361947279e-08 19.99999513039525 0  1.000004690639683 19.99999507934116 0  2.000009445705802 19.99999495685801 0  3.000014400351243 19.99999475128987 0  4.000014559666467 19.99999580095335 0  5.000014443159987 19.9999968553766 0  6.000010573177295 19.9999975771206 0  7.000006925957584 19.99999835633247 0  8.000003426280022 19.99999917008534 0  9 20 0  -9 22 0  -8.000002823017223 21.99999924785278 0  -7.000005679888616 21.99999851031082 0  -6.000008601902661 21.99999780314965 0  -5.000011614721627 21.99999714447948 0  -4.000011661769361 21.99999571196399 0  -3.000011591932519 21.9999942847575 0  -2.000007660841685 21.99999445612622 0  -1.000003808177947 21.99999455047576 0  2.528847795353435e-09 21.99999457530885 0  1.000003811791333 21.9999945333716 0  2.000007659906451 21.99999442283623 0  3.000011582697859 21.99999423738533 0  4.000011644070733 21.99999569869001 0  5.000011592993673 21.99999716287725 0  6.000008590542673 21.99999781382308 0  7.000005674554565 21.99999851605777 0  8.000002821000036 21.99999925033946 0  9 22 0  -9 24 0  -8.000002100709285 23.99999926126245 0  -7.000004205076194 23.99999853082587 0  -6.000006312703468 23.99999781725555 0  -5.000008414651877 23.99999712960066 0  -4.00000842139203 23.9999955957502 0  -3.000008428359056 23.99999406803279 0  -2.000005632505993 23.99999419276695 0  -1.000002828539999 23.99999426482791 0  -2.45069428430857e-08 23.99999428730217 0  1.000002777535226 23.99999426179288 0  2.00000557540761 23.99999418847457 0  3.000008360706156 23.9999940662611 0  4.000008348496542 23.99999561838319 0  5.000008341099464 23.99999717294183 0  6.00000626205398 23.99999784536919 0  7.000004173416409 23.99999854759464 0  8.000002085502606 23.99999926907783 0  9 24 0  -9 26 0  -8.000001363771958 25.99999924146815 0  -7.000002717218099 25.99999848387572 0  -6.00000404621911 25.99999772769933 0  -5.000005328740968 25.99999697242337 0  -4.00000532892909 25.99999552318046 0  -3.000005380239592 25.99999408000214 0  -2.000003636626063 25.99999414009941 0  -1.000001849172101 25.99999417752601 0  -4.357922925370085e-08 25.99999419122881 0  1.000001759959906 25.99999418144942 0  2.000003541207546 25.99999414969261 0  3.000005274333203 25.99999409892247 0  4.000005222140948 25.99999555700652 0  5.000005224973598 25.99999701771016 0  6.000003971932701 25.99999775772267 0  7.000002669383296 25.99999850210029 0  8.000001340361441 25.99999925006017 0  9 26 0  -9 28 0  -8.000000668139233 27.99999921791617 0  -7.000001327141218 27.99999843126141 0  -6.000001965620813 27.99999763454134 0  -5.000002567526672 27.99999682033581 0  -4.000002591247598 27.99999549357205 0  -3.000002656326895 27.99999417220806 0  -2.00000181611051 27.99999417811422 0  -1.00000094236122 27.99999418511899 0  -5.443672914711088e-08 27.99999418908397 0  1.000000831551599 27.99999418901542 0  2.000001699497649 27.99999418696369 0  3.000002530067318 27.99999418821158 0  4.000002467596399 27.99999551614679 0  5.000002449657059 27.99999684745638 0  6.000001879845255 27.99999765261559 0  7.000001271240531 27.99999844227694 0  8.000000640579897 27.99999922312271 0  9 28 0  -9
[...]
<PointData  Vectors="f_44-2"> 
<DataArray  type="Float64"  Name="f_44-2"  NumberOfComponents="3" format="ascii">0.0000000000000000e+00 0.0000000000000000e+00 0.0000000000000000e+00  0.0000000000000000e+00 0.0000000000000000e+00 0.0000000000000000e+00  0.0000000000000000e+00 0.0000000000000000e+00 0.0000000000000000e+00  0.0000000000000000e+00 0.0000000000000000e+00 0.0000000000000000e+00  0.0000000000000000e+00 0.0000000000000000e+00 0.0000000000000000e+00  0.0000000000000000e+00 0.0000000000000000e+00 0.0000000000000000e+00  0.0000000000000000e+00 0.0000000000000000e+00 0.0000000000000000e+00  0.0000000000000000e+00 0.0000000000000000e+00 0.0000000000000000e+00  0.0000000000000000e+00 0.0000000000000000e+00 0.0000000000000000e+00  0.0000000000000000e+00 0.0000000000000000e+00 0.0000000000000000e+00  0.0000000000000000e+00 0.0000000000000000e+00 0.0000000000000000e+00  0.0000000000000000e+00 0.0000000000000000e+00 0.0000000000000000e+00  0.0000000000000000e+00 0.0000000000000000e+00 0.0000000000000000e+00  0.0000000000000000e+00 0.0000000000000000e+00 0.0000000000000000e+00  0.0000000000000000e+00 0.0000000000000000e+00 0.0000000000000000e+00  0.0000000000000000e+00 0.0000000000000000e+00 0.0000000000000000e+00  0.0000000000000000e+00 0.0000000000000000e+00 0.0000000000000000e+00  0.0000000000000000e+00 0.0000000000000000e+00 0.0000000000000000e+00  0.0000000000000000e+00 0.0000000000000000e+00 0.0000000000000000e+00  0.0000000000000000e+00 0.0000000000000000e+00 0.0000000000000000e+00  -1.0992188734949987e-05 -9.9184567338392517e-06 0.0000000000000000e+00  -2.3551717016957000e-05 -1.9492964056540916e-05 0.0000000000000000e+00  -4.0104203378694664e-05 -2.8550134730797763e-05 0.0000000000000000e+00  -6.5146986972932692e-05 -3.7358708920008129e-05 0.0000000000000000e+00  -4.8363735655262413e-05 -2.5556944382210823e-05 0.0000000000000000e+00  -2.8987221340258664e-05 -1.8991584565324059e-05 0.0000000000000000e+00  -1.6402567835036526e-05 -1.4858726960001035e-05 0.0000000000000000e+00  -7.8018211749105599e-06 -1.1759300685772309e-05 0.0000000000000000e+00  -1.6121575948292399e-06 -1.0469777577609132e-05 0.0000000000000000e+00  4.3521958883374121e-06 -1.1271847842527035e-05 0.0000000000000000e+00  1.2135593164040751e-05 -1.4043194019010857e-05 0.0000000000000000e+00  2.3355558656426172e-05 -1.7972010993198187e-05 0.0000000000000000e+00  3.8950876580901430e-05 -2.3326372144681726e-05 0.0000000000000000e+00  5.9647245970523660e-05 -2.8423989334165435e-05 0.0000000000000000e+00  3.6566185594187718e-05 -2.3803606892190889e-05 0.0000000000000000e+00  2.1410169668743078e-05 -1.6981950816197012e-05 0.0000000000000000e+00  9.9773876412338005e-06 -8.8155828730883074e-06 0.0000000000000000e+00  0.0000000000000000e+00 0.0000000000000000e+00 0.0000000000000000e+00  0.0000000000000000e+00 0.0000000000000000e+00 0.0000000000000000e+00  -1.5715009632866419e-05 -2.1212698481633656e-05 0.0000000000000000e+00  -3.1131589114809226e-05 -4.1055261442949327e-05 0.0000000000000000e+00  -4.6247191942750173e-05 -5.8094642774673416e-05 0.0000000000000000e+00  -6.1415524113092479e-05 -7.0746243169151891e-05 0.0000000000000000e+00  -4.2216664082179618e-05 -6.7654961316276284e-05 0.0000000000000000e+00  -2.5994682936549887e-05 -5.6411911914430279e-05 0.0000000000000000e+00  -1.4459498696651294e-05 -4.1895192950777004e-05 0.0000000000000000e+00  -7.0113318964848728e-06 -3.0822118748621929e-05 0.0000000000000000e+00  -2.1560798882426541e-06 -2.6311127082705967e-05 0.0000000000000000e+00  2.5029906071984877e-06 -2.9357701632497653e-05 0.0000000000000000e+00  9.4288814915575191e-06 -3.8456260445948939e-05 0.0000000000000000e+00  2.0951758876873684e-05 -5.1296078805925183e-05 0.0000000000000000e+00  3.7285899643610042e-05 -6.4565810189375268e-05 0.0000000000000000e+00  5.5299833375287297e-05 -7.1046673667700356e-05 0.0000000000000000e+00  4.1432150127383329e-05 -5.6412295815351077e-05 0.0000000000000000e+00  2.7927383064584212e-05 -3.9342734514153354e-05 0.0000000000000000e+00  1.4133184939747966e-05 -2.0228012323486961e-05 0.0000000000000000e+00  0.0000000000000000e+00 0.0000000000000000e+00 0.0000000000000000e+00  0.0000000000000000e+00 0.0000000000000000e+00 0.0000000000000000e+00  -2.1631543613943584e-05 -3.7987452468647626e-05 0.0000000000000000e+00  -3.9915368870500462e-05 -7.3830259296316368e-05 0.0000000000000000e+00  -5.2179273383046828e-05 -1.0519025528102966e-04 0.0000000000000000e+00  -5.7457969304666556e-05 -1.2952610422317345e-04 0.0000000000000000e+00  -2.8977357279303731e-05 -1.1607792824170982e-04 0.0000000000000000e+00  -1.1287756139373686e-05 -8.7126093766902262e-05 0.0000000000000000e+00  -5.3288645656152102e-06 -5.6773667358951527e-05 0.0000000000000000e+00  -4.6950707196672116e-06 -3.9304108085536244e-05 0.0000000000000000e+00  -4.3755110970249889e-06 -3.5026062008037573e-05 0.0000000000000000e+00  -2.9643980170212938e-06 -4.0720604450700311e-05 0.0000000000000000e+00  7.5401772937386122e-07 -5.6100129675768511e-05 0.0000000000000000e+00  7.7528471849783652e-06 -8.1210321544778464e-05 0.0000000000000000e+00  2.0912316756078604e-05 -1.0721796338570804e-04 0.0000000000000000e+00  4.6027300343567370e-05 -1.1954919473238755e-04 0.0000000000000000e+00  4.4846460403235471e-05 -9.8761697383285639e-05 0.0000000000000000e+00  3.5602319245051322e-05 -6.9884134579714747e-05 0.0000000000000000e+00  1.9644920819035053e-05 -3.6093573582061630e-05 0.0000000000000000e+00  0.0000000000000000e+00 0.0000000000000000e+00 0.0000000000000000e+00  0.0000000000000000e+00 0.0000000000000000e+00 0.0000000000000000e+00  -4.0938916411744029e-05 -6.3340703756310524e-05 0.0000000000000000e+00  -7.2778823318114395e-05 -1.2453641225010858e-04 0.0000000000000000e+00  -8.6052213355871607e-05 -1.8038237311732191e-04 0.0000000000000000e+00  -7.1002000686443804e-05 -2.2501732610341108e-04 0.0000000000000000e+00  -2.8091546500787647e-05 -1.6556727261372045e-04 0.0000000000000000e+00  -2.4937800059057834e-05 -9.5675789446062932e-05 0.0000000000000000e+00  -2.9454323061484736e-05 -5.9382250719126228e-05 0.0000000000000000e+00  -2.1733582671827556e-05 -5.1727755042098723e-05 0.0000000000000000e+00  -5.4559534972632021e-06 -4.9282987494149026e-05 0.0000000000000000e+00  9.3132519897941574e-06 -4.7569271673919389e-05 0.0000000000000000e+00  1.4467852315634843e-05 -6.2692438169222817e-05 0.0000000000000000e+00  7.9267210805903236e-06 -9.1095951580947863e-05 0.0000000000000000e+00  1.4966610085149485e-05 -1.5068101321603499e-04 0.0000000000000000e+00  6.0411024567695786e-05 -2.1572366375984970e-04 0.0000000000000000e+00  8.0513956420314941e-05 -1.7347126694469741e-04 0.0000000000000000e+00  7.0130250778964253e-05 -1.2007744585194763e-04 0.0000000000000000e+00  3.9906705945632586e-05 -6.1171111694717427e-05 0.0000000000000000e+00  0.0000000000000000e+00 0.0000000000000000e+00 0.0000000000000000e+00  0.0000000000000000e+00 0.0000000000000000e+00 0.0000000000000000e+00  -9.6642080935234671e-05 -9.7273706555205065e-05 0.0000000000000000e+00  -1.7990838518784679e-04 -1.9664122214781311e-04 0.0000000000000000e+00  -2.3321925553520972e-04 -3.0041798237462222e-04 0.0000000000000000e+00  -2.3222778059657877e-04 -4.1146315353750171e-04 0.0000000000000000e+00  -1.7367614791729012e-04 -2.4258026607172617e-04 0.0000000000000000e+00  -1.6327039717366578e-04 -9.4278821355620800e-05 0.0000000000000000e+00  -1.2117691635256721e-04 -1.0695460069545367e-04 0.0000000000000000e+00  -6.0074599638188727e-05 -1.1103271428479301e-04 0.0000000000000000e+00  -1.1020593951854127e-05 -1.1186589574683051e-04 0.0000000000000000e+00  3.7767968069294302e-05 -1.1274027399486261e-04 0.0000000000000000e+00  9.7120821210476240e-05 -1.1689642570699383e-04 0.0000000000000000e+00  1.6046782538102643e-04 -7.8985255999389795e-05 0.0000000000000000e+00  1.7296891504461518e-04 -2.2003584702877331e-04 0.0000000000000000e+00  2.3562431919189840e-04 -3.9821007208544902e-04 0.0000000000000000e+00  2.3812757447443179e-04 -2.9274615060555280e-04 0.0000000000000000e+00  1.8401726567652117e-04 -1.9232056461673916e-04 0.0000000000000000e+00  9.8900925458791271e-05 -9.5307579287429387e-05 0.0000000000000000e+00  0.0000000000000000e+00 0.0000000000000000e+00 0.0000000000000000e+00  0.0000000000000000e+00 0.0000000000000000e+00 0.0000000000000000e+00  -2.0584747840574606e-04 -1.2283112470098134e-04 0.0000000000000000e+00  -4.0685831511882509e-04 -2.5110851218023306e-04 0.0000000000000000e+00  -5.9759028060931004e-04 -3.9137909434868140e-04 0.0000000000000000e+00  -7.7158727951834544e-04 -5.5280127529216060e-04 0.0000000000000000e+00  -7.5118724709890173e-04 -2.8367699080679806e-04 0.0000000000000000e+00  -7.6203000819833916e-04 -1.7346534933268078e-05 0.0000000000000000e+00  -5.0862711453296698e-04 -5.0973693535674333e-05 0.0000000000000000e+00  -2.5142408386836916e-04 -6.8705618430925746e-05 0.0000000000000000e+00  6.0991253503677102e-06 -7.2565492697137491e-05 0.0000000000000000e+00  2.6638351499860092e-04 -6.2319148322429152e-05 0.0000000000000000e+00  5.3298066230308689e-04 -3.4178255476628964e-05 0.0000000000000000e+00  8.0659530578583763e-04 2.1827188687039649e-05 0.0000000000000000e+00  7.9876059792511895e-04 -2.6636323067802240e-04 0.0000000000000000e+00  8.0898697424054006e-04 -5.5574532466146954e-04 0.0000000000000000e+00  6.2219374220478358e-04 -3.9186693685341732e-04 0.0000000000000000e+00  4.2192746636880957e-04 -2.5091277444687631e-04 0.0000000000000000e+00  2.1303282213805161e-04 -1.2262208694773272e-04 0.0000000000000000e+00  0.0000000000000000e+00 0.0000000000000000e+00 0.0000000000000000e+00  0.0000000000000000e+00 0.0000000000000000e+00 0.0000000000000000e+00  -3.3439798506381308e-04 -1.2660320825436602e-04 0.0000000000000000e+00  -6.7492148162379552e-04 -2.5760253990509459e-04 0.0000000000000000e+00  -1.0288974251099164e-03 -3.9773312040124713e-04 0.0000000000000000e+00  -1.4065101753772552e-03 -5.5233457535935687e-04 0.0000000000000000e+00  -1.4171114637908716e-03 -2.8651777914777957e-04 0.0000000000000000e+00  -1.4029939553202666e-03 -1.5911914124170030e-05 0.0000000000000000e+00  -9.1128094762246551e-04 -5.8572914824109303e-05 0.0000000000000000e+00  -4.4405569796595289e-04 -8.1866162179122174e-05 0.0000000000000000e+00  1.2174255346496272e-05 -8.9689476403422816e-05 0.0000000000000000e+00  4.6974988210646919e-04 -8.3475597908802855e-05 0.0000000000000000e+00  9.4077425092778920e-04 -6.2917260152944374e-05 0.0000000000000000e+00  1.4376284344600079e-03 -2.6679650044523783e-05 0.0000000000000000e+00  1.4575455245932128e-03 -2.9148340638051207e-04 0.0000000000000000e+00  1.4524964115568077e-03 -5.5327686463886572e-04 0.0000000000000000e+00  1.0601480627574116e-03 -3.9928951621025135e-04 0.0000000000000000e+00  6.9434881233661368e-04 -2.5885033831336254e-04 0.0000000000000000e+00  3.4371595165826009e-04 -1.2726179099282919e-04 0.0000000000000000e+00  0.0000000000000000e+00 0.0000000000000000e+00 0.0000000000000000e+00  0.0000000000000000e+00 0.0000000000000000e+00 0.0000000000000000e+00  -4.3844482107410689e-04 -1.1279071139937265e-04 0.0000000000000000e+00  -8.8917219011971080e-04 -2.2757134954423257e-04 0.0000000000000000e+00  -1.3656530039692901e-03 -3.4620332170964054e-04 0.0000000000000000e+00  -1.8838345954453476e-03 -4.7019401160759759e-04 0.0000000000000000e+00  -1.9053800727422080e-03 -2.9585869821276801e-04 0.0000000000000000e+00  -1.8768753682449270e-03 -1.2333546547130605e-04 0.0000000000000000e+00  -1.2159883395453483e-03 -1.4364187359370141e-04 0.0000000000000000e+00  -5.9270819232437686e-04 -1.5690548985634479e-04 0.0000000000000000e+00  1.2866611811635464e-05 -1.6296141335107926e-04 0.0000000000000000e+00  6.1932311777275614e-04 -1.6200908781709408e-04 0.0000000000000000e+00  1.2452526191163962e-03 -1.5437255324072526e-04 0.0000000000000000e+00  1.9106410555475844e-03 -1.4061370771651773e-04 0.0000000000000000e+00  1.9409292168242895e-03 -3.1030030847421417e-04 0.0000000000000000e+00  1.9202539751115677e-03 -4.8001789805574794e-04 0.0000000000000000e+00  1.3919006973231343e-03 -3.5251911989835180e-04 0.0000000000000000e+00  9.0610144437343375e-04 -2.3138511359746330e-04 0.0000000000000000e+00  4.4672957077556980e-04 -1.1459433786095118e-04 0.0000000000000000e+00  0.0000000000000000e+00 0.0000000000000000e+00 0.0000000000000000e+00  0.0000000000000000e+00 0.0000000000000000e+00 0.0000000000000000e+00  -4.9336008423176672e-04 -9.1018597285665359e-05 0.0000000000000000e+00  -1.0004109096069553e-03 -1.8213489896157220e-04 0.0000000000000000e+00  -1.5356014445584746e-03 -2.7323877898896933e-04 0.0000000000000000e+00  -2.1148976919024339e-03 -3.6377636483077102e-04 0.0000000000000000e+00  -2.1389316581498325e-03 -3.0852558975419858e-04 0.0000000000000000e+00  -2.1097470247280199e-03 -2.5327566411513736e-04 0.0000000000000000e+00  -1.3702726492342587e-03 -2.5688167816076570e-04 0.0000000000000000e+00  -6.7054138169534512e-04 -2.6077520963357681e-04 0.0000000000000000e+00  1.0032085683262209e-05 -2.6426594744349678e-04 0.0000000000000000e+00  6.9100626480782452e-04 -2.6727905345907065e-04 0.0000000000000000e+00  1.3918994463972029e-03 -2.7031683880443264e-04 0.0000000000000000e+00  2.1331515028198702e-03 -2.7452403400468812e-04 0.0000000000000000e+00  2.1629869588715733e-03 -3.2463898257469530e-04 0.0000000000000000e+00  2.1390240459562438e-03 -3.7401882083407985e-04 0.0000000000000000e+00  1.5534328171482410e-03 -2.8028975034208076e-04 0.0000000000000000e+00  1.0121418325979513e-03 -1.8654703837958839e-04 0.0000000000000000e+00  4.9917245578821564e-04 -9.3141222303368186e-05 0.0000000000000000e+00  0.0000000000000000e+00 0.0000000000000000e+00 0.0000000000000000e+00  0.0000000000000000e+00 0.0000000000000000e+00 0.0000000000000000e+00  -4.9351147619445342e-04 -6.8855826054807474e-05 0.0000000000000000e+00  -9.9908892336034974e-04 -1.3674835669281733e-04 0.0000000000000000e+00  -1.5291383099998994e-03 -2.0253975039450148e-04 0.0000000000000000e+00  -2.0967180863962764e-03 -2.6473627463296145e-04 0.0000000000000000e+00  -2.1178037376047764e-03 -3.2064813995522041e-04 0.0000000000000000e+00  -2.0929970407191833e-03 -3.7642190544133773e-04 0.0000000000000000e+00  -1.3655881565351401e-03 -3.6897172284622152e-04 0.0000000000000000e+00  -6.7173499434176377e-04 -3.6626060803185060e-04 0.0000000000000000e+00  5.5947332851536386e-06 -3.6748117732066619e-04 0.0000000000000000e+00  6.8301513412925125e-04 -3.7245051805005492e-04 0.0000000000000000e+00  1.3771144758277737e-03 -3.8158383759461694e-04 0.0000000000000000e+00  2.1048496083221880e-03 -3.9591436632667264e-04 0.0000000000000000e+00  2.1293125470910846e-03 -3.3439820016411241e-04 0.0000000000000000e+00  2.1080233146098912e-03 -2.7243570872081930e-04 0.0000000000000000e+00  1.5377608283079006e-03 -2.0811531177538154e-04 0.0000000000000000e+00  1.0048939037443352e-03 -1.4036162175008621e-04 0.0000000000000000e+00  4.9642834344103466e-04 -7.0629910597284145e-05 0.0000000000000000e+00  0.0000000000000000e+00 0.0000000000000000e+00 0.0000000000000000e+00  0.0000000000000000e+00 0.0000000000000000e+00 0.0000000000000000e+00  -4.4539849282586259e-04 -5.0546387951405389e-05 0.0000000000000000e+00  -8.9987795699752559e-04 -9.9766592395280203e-05 0.0000000000000000e+00  -1.3725514922200979e-03 -1.4622054644497466e-04 0.0000000000000000e+00  -1.8725619878600637e-03 -1.8823928217799368e-04 0.0000000000000000e+00  -1.8885557410879862e-03 -3.3154324333184340e-04 0.0000000000000000e+00  -1.8708503334053906e-03 -4.7459653587147521e-04 0.0000000000000000e+00  -1.2266834346307031e-03 -4.6210607727850895e-04 0.0000000000000000e+00  -6.0683609063368494e-04 -4.5601976342589780e-04 0.0000000000000000e+00  7.9476840947530519e-07 -4.5570179315982155e-04 0.0000000000000000e+00  6.0830963536115119e-04 -4.6096657918236758e-04 0.0000000000000000e+00  1.2277892136450072e-03 -4.7206262146396539e-04 0.0000000000000000e+00  1.8712772731153591e-03 -4.8967019844916497e-04 0.0000000000000000e+00  1.8882646921176236e-03 -3.4135422045295763e-04 0.0000000000000000e+00  1.8719306749178288e-03 -1.9276761740553489e-04 0.0000000000000000e+00  1.3725045897400073e-03 -1.4967439513785330e-04 0.0000000000000000e+00  9.0003938433310835e-04 -1.0208852759454676e-04 0.0000000000000000e+00  4.4553494554836674e-04 -5.1711558282658797e-05 0.0000000000000000e+00  0.0000000000000000e+00 0.0000000000000000e+00 0.0000000000000000e+00  0.0000000000000000e+00 0.0000000000000000e+00 0.0000000000000000e+00  -3.6096144011493113e-04 -3.7541791869709885e-05 0.0000000000000000e+00  -7.2789000118865575e-04 -7.3849998150704767e-05 0.0000000000000000e+00  -1.1066155238956853e-03 -1.0764246807996144e-04 0.0000000000000000e+00  -1.5026593941226143e-03 -1.3754244422506392e-04 0.0000000000000000e+00  -1.5137491524028577e-03 -3.4028676387227579e-04 0.0000000000000000e+00  -1.5032639892766291e-03 -5.4269108715881195e-04 0.0000000000000000e+00  -9.9050241934685594e-04 -5.2962438578127338e-04 0.0000000000000000e+00  -4.9307213469048207e-04 -5.2270601885990307e-04 0.0000000000000000e+00  -3.5411586714319082e-06 -5.2159184340215569e-04 0.0000000000000000e+00  4.8574631881949235e-04 -5.2615810100669648e-04 0.0000000000000000e+00  9.8243209336633689e-04 -5.3649582386331124e-04 0.0000000000000000e+00  1.4939063826288612e-03 -5.5290039157612205e-04 0.0000000000000000e+00  1.5036118587888646e-03 -3.4623265765777034e-04 0.0000000000000000e+00  1.4923015836572284e-03 -1.3935093272101232e-04 0.0000000000000000e+00  1.0994035970411928e-03 -1.0920430128466830e-04 0.0000000000000000e+00  7.2334116677905927e-04 -7.4980005078452812e-05 0.0000000000000000e+00  3.5876346231697703e-04 -3.8131668988996135e-05 0.0000000000000000e+00  0.0000000000000000e+00 0.0000000000000000e+00 0.0000000000000000e+00  0.0000000000000000e+00 0.0000000000000000e+00 0.0000000000000000e+00  -2.5265587352634686e-04 -2.9471598465091211e-05 0.0000000000000000e+00  -5.0871536251203403e-04 -5.7996441103615458e-05 0.0000000000000000e+00  -7.7140532008152288e-04 -8.4634500750589529e-05 0.0000000000000000e+00  -1.0435775384064466e-03 -1.0846400769800331e-04 0.0000000000000000e+00  -1.0510976583985581e-03 -3.4637962585431034e-04 0.0000000000000000e+00  -1.0466575050510148e-03 -5.8393441854881489e-04 0.0000000000000000e+00  -6.9299783990883778e-04 -5.7254960240538154e-04 0.0000000000000000e+00  -3.4771164128586263e-04 -5.6617580973348050e-04 0.0000000000000000e+00  -6.9030632388476783e-06 -5.6476045224467246e-04 0.0000000000000000e+00  3.3359055948987753e-04 -5.6826406603412865e-04 0.0000000000000000e+00  6.7792240367898864e-04 -5.7666199026731510e-04 0.0000000000000000e+00  1.0299602241509932e-03 -5.8993029624570224e-04 0.0000000000000000e+00  1.0337276889624994e-03 -3.4942456919436886e-04 0.0000000000000000e+00  1.0261719121770357e-03 -1.0871862891498580e-04 0.0000000000000000e+00  7.5895959109137259e-04 -8.5044998146432811e-05 0.0000000000000000e+00  5.0070369708581444e-04 -5.8367730166921567e-05 0.0000000000000000e+00  2.4873505783502462e-04 -2.9685167867178214e-05 0.0000000000000000e+00  0.0000000000000000e+00 0.0000000000000000e+00 0.0000000000000000e+00  0.0000000000000000e+00 0.0000000000000000e+00 0.0000000000000000e+00  -1.3073597205518880e-04 -2.5188453090150031e-05 0.0000000000000000e+00  -2.6301866268095168e-04 -4.9690049760853960e-05 0.0000000000000000e+00  -3.9827967380758880e-04 -7.2860792950306860e-05 0.0000000000000000e+00  -5.3770694195807457e-04 -9.4148583926024470e-05 0.0000000000000000e+00  -5.4315665113030195e-04 -3.4971312411757649e-04 0.0000000000000000e+00  -5.4328893647107056e-04 -6.0494202551244396e-04 0.0000000000000000e+00  -3.6200061524990041e-04 -5.9543088080440672e-04 0.0000000000000000e+00  -1.8444130369444622e-04 -5.8981199206705511e-04 0.0000000000000000e+00  -9.0051717291117262e-06 -5.8825328680930000e-04 0.0000000000000000e+00  1.6608249677139517e-04 -5.9079288647879036e-04 0.0000000000000000e+00  3.4258996806319018e-04 -5.9734675912759922e-04 0.0000000000000000e+00  5.2210418730797058e-04 -6.0769429255282895e-04 0.0000000000000000e+00  5.214