<?xml version="1.0"?>
<VTKFile type="UnstructuredGrid"  version="0.1"  >
<UnstructuredGrid>
<Piece  NumberOfPoints="589" NumberOfCells="1080">
<Points>
<DataArray  type="Float64"  NumberOfComponents="3"  format="ascii">-9 0 0  -8 0 0  -7 0 0  -6 0 0  -5 0 0  -4 0 0  -3 0 0  -2 0 0  -1 0 0  0 0 0  1 0 0  2 0 0  3 0 0  4 0 0  5 0 0  6 0 0  7 0 0  8 0 0  9 0 0  -9 2 0  -8.000001251897979 1.999997697091574 0  -7.00000269908006 1.999995683085938 0  -6.000004750769784 1.999994193424451 0  -5.000008299078399 1.999993331633068 0  -4.00000471119762 1.999994947865984 0  -3.000000933826287 1.99999652138573 0  -1.999999066993189 1.999998009133096 0  -0.9999987157692927 1.999999162714369 0  7.208343417263329e-07 1.999999594110936 0  1.000000192084439 1.999999046088694 0  2.000000656788422 1.999997568332375 0  3.000002812335173 1.999995680728385 0  4.000007004236585 1.999993394736655 0  5.000013231401582 1.999991618905845 0  6.000008368862699 1.999992474640242 0  7.000005099314238 1.999994395718335 0  8.000002454131966 1.999997020386135 0  9 2 0  -9.000000000004983 4 0  -8.000001722657254 3.999994238604061 0  -7.000002980135531 3.999989268818097 0  -6.000003515057764 3.999985875381077 0  -5.000003424725058 3.999984825384907 0  -3.999998000358529 3.999985300785478 0  -2.999994270151008 3.999989734060554 0  -1.99999317690991 3.999995623344757 0  -0.9999943793457375 4.000000316652856 0  3.170826653868045e-06 4.00000201497968 0  1.000000733840741 3.999999964061927 0  1.999999612849559 3.999994976171195 0  3.000001137611253 3.999988151997785 0  4.000005728001817 3.99998088599292 0  5.000012328488445 3.999977063341479 0  6.000010365720742 3.999980687957434 0  7.000007701125806 3.99998597714818 0  8.000004144023157 3.999992621056948 0  9 4 0  -9 6 0  -8.000004054086553 5.99998761384297 0  -7.000006151422145 5.999976549310279 0  -6.000004780363079 5.99996818372848 0  -4.999999466878859 5.999963885825273 0  -3.999988727935859 5.999970196479018 0  -2.999983618336628 5.999984104191755 0  -1.999984992215583 5.999998855520263 0  -0.9999893078666363 6.00000723207709 0  6.086269295751301e-06 6.000008771083434 0  1.000001798675161 6.000005461034677 0  1.999998574802324 5.999996640998417 0  2.999997710051509 5.999981815488469 0  4.000001061912819 5.999966098633896 0  5.000011540184627 5.999957365608496 0  6.000015169899851 5.999962243169728 0  7.000013872896785 5.999972139945116 0  8.000008181483867 5.999985281826421 0  9 6 0  -9 8 0  -8.000014212076644 7.999975703354429 0  -7.000023196006502 7.999953034846291 0  -6.000021815167389 7.999934222232069 0  -5.000005492196532 7.99992296477542 0  -3.999985212404171 7.999953228692819 0  -2.999987392632957 7.999989233326591 0  -1.999993682921225 8.000007610387046 0  -0.9999937252611415 8.000010761885809 0  1.09180901171261e-05 8.000011831361999 0  1.000014141983404 8.000013610265352 0  2.000012352285008 8.000004407503489 0  3.000002829989642 7.999988775057155 0  3.999999913348528 7.999952071044091 0  5.000022296482225 7.999910970761617 0  6.000039680293046 7.999923722934094 0  7.000037621453578 7.999945323452897 0  8.000022178440169 7.999971638325102 0  9 8 0  -9 10 0  -8.000045279000899 9.999957283333833 0  -7.00008169584974 9.999914101483062 0  -6.000098614263684 9.999870047856836 0  -5.000081122621183 9.999824847463273 0  -4.000049786220743 9.999920439774657 0  -3.000052091525455 10.00000348116511 0  -2.000037936215646 9.9999926357712 0  -1.000010192677005 9.999989199421615 0  1.121039374743007e-05 9.999988359918317 0  1.000032987372381 9.999988090802706 0  2.000062519036883 9.999986272734303 0  3.000087820609018 10.00001835846782 0  4.00008448768427 9.999924326289323 0  5.000125836829985 9.999801243174707 0  6.00014195125983 9.999849817389533 0  7.000114900146849 9.999899654186688 0  8.000063112630095 9.999949810636455 0  9 10 0  -9 12 0  -8.000111778106106 11.99994073023051 0  -7.000218162482881 11.99987866555738 0  -6.000313001026091 11.99981047819498 0  -5.000388606583147 11.9997315590642 0  -4.00037265691808 11.99990227238248 0  -3.000383877892761 12.00007104098894 0  -2.000241496046672 12.00005462104883 0  -1.00008736716336 12.00004770804247 0  7.022066694275534e-05 12.00004998231644 0  1.000227279771036 12.00006211491983 0  2.000379869379134 12.00008670147854 0  3.000519811405399 12.00012991882989 0  4.000502117586345 11.99990440422403 0  5.000516220126372 11.99967689452249 0  6.000416833102974 11.99977088083792 0  7.000291098279363 11.99985271825733 0  8.000149330888924 11.9999278587831 0  9 12 0  -9 14 0  -8.000199819112442 13.99993536347779 0  -7.000400759486525 13.99986773203296 0  -6.000604228967703 13.99979385258444 0  -5.000812403835182 13.99970996900192 0  -4.000814289275942 13.9999044886379 0  -3.000812410280622 14.00010129864582 0  -2.000492107617999 14.00007859147249 0  -1.000178397841557 14.00006947920433 0  0.0001313694294825033 14.00007218331134 0  1.000439522605411 14.00008634023548 0  2.000747933805321 14.00011263204355 0  3.001057666161478 14.00015239967221 0  4.001059329480874 13.99989464989819 0  5.001063831359198 13.99963809912853 0  6.000796991655937 13.99974057801558 0  7.000531358665676 13.99983259306121 0  8.000265759988061 13.99991791709804 0  9 14 0  -9 16 0  -8.000283331080727 15.99994198067279 0  -7.00057316704676 15.99988179975191 0  -6.000876516987113 15.99981725754755 0  -5.001201445105186 15.9997461170686 0  -4.001213311393043 15.99990429791279 0  -3.001199092526825 16.00006127869475 0  -2.000716470253056 16.00004822221596 0  -1.000253704263447 16.00004401793566 0  0.0001989926065897128 16.00004860420803 0  1.000650815069076 16.00006205819996 0  2.001110869701018 16.00008469271431 0  3.001588754960712 16.00011700948667 0  4.001602316015545 15.99988710345392 0  5.001592369757176 15.99965674042067 0  6.001172127828497 15.999752158114 0  7.000771361326562 15.99983925130727 0  8.000382760851172 15.99992095049076 0  9 16 0  -9 18 0  -8.000340776479073 17.99995724517907 0  -7.000691437191506 17.99991331713929 0  -6.001062357339506 17.99986706311275 0  -5.001464903219117 17.99981738061755 0  -4.00148300200994 17.99990219716943 0  -3.001462910538669 17.99998659195134 0  -2.000861566700556 17.99998247846054 0  -1.000288802709215 17.99998343076544 0  0.0002701257196427596 17.99998959096257 0  1.000829272053625 18.00000109101736 0  2.001402670482431 18.00001806088434 0  3.002005013257652 18.0000406018849 0  4.002025493511888 17.99988106282916 0  5.00200750327935 17.99972160427807 0  6.001469134903505 17.99979705494342 0  7.000962554336768 17.99986749742347 0  8.000476317561308 17.9999345874253 0  9 18 0  -9 20 0  -8.00035864298779 19.99997720182844 0  -7.000728584447637 19.99995413979272 0  -6.001121551703383 19.99993058501885 0  -5.001550133303308 19.99990638003702 0  -4.001570746354463 19.99989957905152 0  -3.001548070275612 19.9998923590206 0  -2.00089253213802 19.99989649713164 0  -1.000268642658977 19.99990203919922 0  0.0003403967725557654 19.99990924603317 0  1.000950823256299 19.99991827225305 0  2.001578902740662 19.99992917118864 0  3.002241527694237 19.99994188545631 0  4.002265257242473 19.9998773559099 0  5.002243064140721 19.99981282295975 0  6.001638753655778 19.99986199078264 0  7.001072222220757 19.99990915692914 0  8.0005301177432 19.99995493366269 0  8.99999999997466 19.99999999999337 0  -9 22 0  -8.000331275470428 21.99999821348354 0  -7.000673541593295 21.99999693398883 0  -6.001038141261208 21.99999670923598 0  -5.00143712190701 21.99999816918448 0  -4.001457070172433 21.99989631886908 0  -3.001435174246065 21.99979405903812 0  -2.000797099822401 21.99980490821659 0  -1.0001891706095 21.99981399824427 0  0.0004051293686288184 21.99982163389268 0  1.001001871030614 21.99982797295002 0  2.001617173526119 21.99983302973243 0  3.002267700000414 21.99983667293819 0  4.002291262122434 21.99987539871286 0  5.002268249771259 21.99991404978362 0  6.001657031519115 21.99993493278657 0  7.001084040478911 21.99995637206818 0  8.000535901773917 21.999978118756 0  9 22 0  -9 24 0  -8.000259901182885 24.00001719783053 0  -7.000529071519657 24.00003551057486 0  -6.000817051349276 24.00005609649004 0  -5.001133913691314 24.00008020117961 0  -4.001150653882669 23.99989260112809 0  -3.001132202328244 23.99970462904037 0  -2.00058128344212 23.9997203468497 0  -1.000055269649314 23.99973176688781 0  0.0004601060994687477 23.99973920079812 0  1.000978786639396 23.99974279559133 0  2.001514772666211 23.99974253512105 0  3.002082506766246 23.99973823932107 0  4.002103100902405 23.99987497239086 0  5.002082131408113 24.00001159366102 0  6.001522185361277 24.00000564680705 0  7.0009963202113 24.00000235516271 0  8.000492678575007 24.00000076320023 0  9 24 0  -9 26 0  -8.000151395095047 26.00003172432793 0  -7.000309262283324 26.00006499697142 0  -6.000480257292656 26.00010141141772 0  -5.000671394364455 26.00014265220615 0  -4.000682992206669 25.99988863398456 0  -3.000670026186747 25.99963428507012 0  -2.00026603781651 25.99965295620342 0  -0.999878903415691 25.99966546080051 0  0.0005018747925110581 25.99967210545639 0  1.000886591011211 25.99967302087046 0  2.001285602279396 25.99966816347372 0  3.001709595956108 25.99965731383217 0  4.001725041568315 25.99987582295875 0  5.001708356103108 26.00009417787064 0  6.001250810083763 26.00006573727252 0  7.000819581849561 26.00004153787571 0  8.000405545950491 26.00002009169304 0  9 26 0  -9 28 0  -8.000016936068027 28.00004005950058 0  -7.000036825318285 28.00008191876468 0  -6.000062714069363 28.00012742423204 0  -5.000097823292814 28.00017851594707 0  -4.000102986865619 27.9998846583491 0  -3.000096884523429 27.99959051908458 0  -1.999883570495776 27.99961021004477 0  -0.9996771993560992 27.99962257384414 0  0.0005279005395272389 27.99962790590385 0  1.000737321851541 27.99962631827852 0  2.000956722307622 27.99961774017625 0  3.001191969310965 27.99960191765784 0  4.001200740691358 27.99987770668845 0  5.001189959324508 28.00015330511201 0  6.000873961280248 28.00010886110681 0  7.00057394890303 28.00006970713081 0  8.0
[...]
<PointData  Vectors="f_44-2"> 
<DataArray  type="Float64"  Name="f_44-2"  NumberOfComponents="3" format="ascii">0.0000000000000000e+00 0.0000000000000000e+00 0.0000000000000000e+00  0.0000000000000000e+00 0.0000000000000000e+00 0.0000000000000000e+00  0.0000000000000000e+00 0.0000000000000000e+00 0.0000000000000000e+00  0.0000000000000000e+00 0.0000000000000000e+00 0.0000000000000000e+00  0.0000000000000000e+00 0.0000000000000000e+00 0.0000000000000000e+00  0.0000000000000000e+00 0.0000000000000000e+00 0.0000000000000000e+00  0.0000000000000000e+00 0.0000000000000000e+00 0.0000000000000000e+00  0.0000000000000000e+00 0.0000000000000000e+00 0.0000000000000000e+00  0.0000000000000000e+00 0.0000000000000000e+00 0.0000000000000000e+00  0.0000000000000000e+00 0.0000000000000000e+00 0.0000000000000000e+00  0.0000000000000000e+00 0.0000000000000000e+00 0.0000000000000000e+00  0.0000000000000000e+00 0.0000000000000000e+00 0.0000000000000000e+00  0.0000000000000000e+00 0.0000000000000000e+00 0.0000000000000000e+00  0.0000000000000000e+00 0.0000000000000000e+00 0.0000000000000000e+00  0.0000000000000000e+00 0.0000000000000000e+00 0.0000000000000000e+00  0.0000000000000000e+00 0.0000000000000000e+00 0.0000000000000000e+00  0.0000000000000000e+00 0.0000000000000000e+00 0.0000000000000000e+00  0.0000000000000000e+00 0.0000000000000000e+00 0.0000000000000000e+00  0.0000000000000000e+00 0.0000000000000000e+00 0.0000000000000000e+00  0.0000000000000000e+00 0.0000000000000000e+00 0.0000000000000000e+00  8.5005499538106101e-05 1.2697335762004017e-04 0.0000000000000000e+00  1.7802110753733063e-04 2.3815411462343688e-04 0.0000000000000000e+00  2.9824051595022359e-04 3.2069045571377509e-04 0.0000000000000000e+00  4.8984732513020202e-04 3.6885585709415245e-04 0.0000000000000000e+00  2.9016049951516445e-04 2.7625364902626471e-04 0.0000000000000000e+00  8.5050646543320096e-05 1.8753022540121071e-04 0.0000000000000000e+00  -1.4866004649632907e-05 1.0386222446728694e-04 0.0000000000000000e+00  -3.1148289266719275e-05 3.7605489393414015e-05 0.0000000000000000e+00  4.9239958261426697e-06 8.2801906312519732e-06 0.0000000000000000e+00  4.5054772858444349e-05 2.7751356266194801e-05 0.0000000000000000e+00  4.2450114945388882e-05 9.1018899414281904e-05 0.0000000000000000e+00  -3.4114761089696094e-05 1.6821323854224364e-04 0.0000000000000000e+00  -1.9379150834316795e-04 2.4955774574267060e-04 0.0000000000000000e+00  -4.2446018044191763e-04 2.7884768496778641e-04 0.0000000000000000e+00  -2.5493674843892210e-04 2.6957768361801068e-04 0.0000000000000000e+00  -1.5134262657884643e-04 2.0886543448879959e-04 0.0000000000000000e+00  -7.2264333327700766e-05 1.1331191341297358e-04 0.0000000000000000e+00  0.0000000000000000e+00 0.0000000000000000e+00 0.0000000000000000e+00  0.0000000000000000e+00 0.0000000000000000e+00 0.0000000000000000e+00  1.3797006205193342e-04 3.1711386443824597e-04 0.0000000000000000e+00  2.4722741359965809e-04 5.9088352640675234e-04 0.0000000000000000e+00  3.1093097310448746e-04 7.7886337903403915e-04 0.0000000000000000e+00  3.3243107524630767e-04 8.4062805531069618e-04 0.0000000000000000e+00  4.1159662676255101e-05 7.9684554654559428e-04 0.0000000000000000e+00  -1.5391482468712331e-04 5.4570238786836049e-04 0.0000000000000000e+00  -2.0424116514277429e-04 2.1870405216472893e-04 0.0000000000000000e+00  -1.2898094089006925e-04 -4.4695733054774073e-05 0.0000000000000000e+00  1.4598094679255738e-05 -1.5154057121289524e-04 0.0000000000000000e+00  1.6139609899535142e-04 -7.0451953912405290e-05 0.0000000000000000e+00  2.4765831587783820e-04 1.5027170273071680e-04 0.0000000000000000e+00  2.0965717543008772e-04 4.4863044737654780e-04 0.0000000000000000e+00  2.8000723282447521e-05 7.4691092138580244e-04 0.0000000000000000e+00  -2.5121304103697750e-04 8.4085740392936183e-04 0.0000000000000000e+00  -2.4615439508365167e-04 7.4492110867942901e-04 0.0000000000000000e+00  -2.0462007837198875e-04 5.5709102909710017e-04 0.0000000000000000e+00  -1.1727050872873588e-04 2.9765239402601340e-04 0.0000000000000000e+00  0.0000000000000000e+00 0.0000000000000000e+00 0.0000000000000000e+00  0.0000000000000000e+00 0.0000000000000000e+00 0.0000000000000000e+00  3.0578203504245125e-04 6.8061469681056797e-04 0.0000000000000000e+00  4.9864903442471350e-04 1.2867568198629950e-03 0.0000000000000000e+00  4.9243509301843589e-04 1.7418819837480468e-03 0.0000000000000000e+00  2.6253498203619046e-04 1.9727344489175380e-03 0.0000000000000000e+00  -3.0669628660258522e-04 1.5992889228072032e-03 0.0000000000000000e+00  -5.6474706146715503e-04 8.2021277143161299e-04 0.0000000000000000e+00  -4.6046209628796509e-04 3.7546285065879835e-06 0.0000000000000000e+00  -2.0357818099746077e-04 -4.4959590692621225e-04 0.0000000000000000e+00  5.5632981102925754e-05 -5.4100980669710837e-04 0.0000000000000000e+00  2.8819685937185027e-04 -3.9591948165064168e-04 0.0000000000000000e+00  4.6547507532461707e-04 6.3699645402483904e-06 0.0000000000000000e+00  5.3285963771847970e-04 6.8617570497056741e-04 0.0000000000000000e+00  4.0065559791323014e-04 1.3896317110201188e-03 0.0000000000000000e+00  -8.1007891394395138e-05 1.7343497606484418e-03 0.0000000000000000e+00  -3.8327546752427074e-04 1.5878234618011005e-03 0.0000000000000000e+00  -4.4115316345246333e-04 1.1917314138543307e-03 0.0000000000000000e+00  -2.8195203013001337e-04 6.3482902323041201e-04 0.0000000000000000e+00  0.0000000000000000e+00 0.0000000000000000e+00 0.0000000000000000e+00  0.0000000000000000e+00 0.0000000000000000e+00 0.0000000000000000e+00  9.2530017434612813e-04 1.3419295065952071e-03 0.0000000000000000e+00  1.5463656607307716e-03 2.5866148418012091e-03 0.0000000000000000e+00  1.5686650794382356e-03 3.6019075608618297e-03 0.0000000000000000e+00  7.4067230651672449e-04 4.1700289023736421e-03 0.0000000000000000e+00  -3.6333212940424232e-04 2.4461100568830118e-03 0.0000000000000000e+00  -1.5512721696860912e-04 4.2060789803024249e-04 0.0000000000000000e+00  2.6349694424071795e-04 -5.6370627208958098e-04 0.0000000000000000e+00  3.0128997319965741e-04 -6.7217309282213071e-04 0.0000000000000000e+00  5.5702623807785907e-05 -7.0318393821851505e-04 0.0000000000000000e+00  -1.2862124279261426e-04 -8.0245616467275558e-04 0.0000000000000000e+00  -5.3622034181964892e-05 -3.9609034222012012e-04 0.0000000000000000e+00  4.2427459912148028e-04 2.9560172608814332e-04 0.0000000000000000e+00  5.8665931219359228e-04 2.0166200380619310e-03 0.0000000000000000e+00  -4.9054765674643949e-04 3.9593691624169669e-03 0.0000000000000000e+00  -1.4978945964443989e-03 3.4288632856347098e-03 0.0000000000000000e+00  -1.5459265310117493e-03 2.4695147240812745e-03 0.0000000000000000e+00  -9.3757028092631236e-04 1.2836360247411194e-03 0.0000000000000000e+00  0.0000000000000000e+00 0.0000000000000000e+00 0.0000000000000000e+00  0.0000000000000000e+00 0.0000000000000000e+00 0.0000000000000000e+00  2.7613823670599542e-03 2.3919158953022508e-03 0.0000000000000000e+00  4.9889391451866912e-03 4.8035704172930552e-03 0.0000000000000000e+00  6.0456557742075961e-03 7.2498359080991814e-03 0.0000000000000000e+00  5.0448529428908659e-03 9.7343216471723025e-03 0.0000000000000000e+00  3.2897453096100348e-03 4.1562125570116324e-03 0.0000000000000000e+00  3.5840519652392874e-03 -6.3952394806480615e-04 0.0000000000000000e+00  2.8789693733318553e-03 1.9784910972049142e-04 0.0000000000000000e+00  1.3402520162894185e-03 4.6714680731671379e-04 0.0000000000000000e+00  2.0985266383651428e-04 5.3296289983972487e-04 0.0000000000000000e+00  -9.0986740986315044e-04 5.2698706399566329e-04 0.0000000000000000e+00  -2.3993334665650583e-03 5.5293954051523599e-04 0.0000000000000000e+00  -3.7114785263241165e-03 -1.1656642561560513e-03 0.0000000000000000e+00  -3.5477904376926060e-03 3.3386123179935741e-03 0.0000000000000000e+00  -5.5257111896065327e-03 9.2830063715946248e-03 0.0000000000000000e+00  -6.4488671555058804e-03 6.9845590045728625e-03 0.0000000000000000e+00  -5.2756721748853947e-03 4.6530137752799645e-03 0.0000000000000000e+00  -2.9096559446046520e-03 2.3232122739805967e-03 0.0000000000000000e+00  0.0000000000000000e+00 0.0000000000000000e+00 0.0000000000000000e+00  0.0000000000000000e+00 0.0000000000000000e+00 0.0000000000000000e+00  6.7310570113695845e-03 3.3623097249920793e-03 0.0000000000000000e+00  1.3112074952203016e-02 6.8810098796545927e-03 0.0000000000000000e+00  1.8746837510606938e-02 1.0743114944793814e-02 0.0000000000000000e+00  2.3144486231745864e-02 1.5209537725364337e-02 0.0000000000000000e+00  2.2240490735639745e-02 5.0221536041390579e-03 0.0000000000000000e+00  2.3055391217150729e-02 -5.0664232357415908e-03 0.0000000000000000e+00  1.5888003065461589e-02 -3.8377009475459517e-03 0.0000000000000000e+00  7.8994788846529305e-03 -3.1664965462819168e-03 0.0000000000000000e+00  -4.0282068651943513e-04 -3.0252308299047628e-03 0.0000000000000000e+00  -8.7927029377770222e-03 -3.4342834731569314e-03 0.0000000000000000e+00  -1.7080280744351303e-02 -4.5149042648877482e-03 0.0000000000000000e+00  -2.4891600364588991e-02 -6.5716094253777347e-03 0.0000000000000000e+00  -2.4038662196516673e-02 4.2434531906427450e-03 0.0000000000000000e+00  -2.4609402430723092e-02 1.5145744109387092e-02 0.0000000000000000e+00  -1.9780686693992848e-02 1.0670968719973807e-02 0.0000000000000000e+00  -1.3774402372074054e-02 6.8285042511338776e-03 0.0000000000000000e+00  -7.0548775505774449e-03 3.3357875948769743e-03 0.0000000000000000e+00  0.0000000000000000e+00 0.0000000000000000e+00 0.0000000000000000e+00  0.0000000000000000e+00 0.0000000000000000e+00 0.0000000000000000e+00  1.2097405849218696e-02 3.7064334650352701e-03 0.0000000000000000e+00  2.4214653711674257e-02 7.5836043840600787e-03 0.0000000000000000e+00  3.6386924653161991e-02 1.1817334803636512e-02 0.0000000000000000e+00  4.8691058068236273e-02 1.6622990768677921e-02 0.0000000000000000e+00  4.8809238765337971e-02 4.6937603719107912e-03 0.0000000000000000e+00  4.8884249128650317e-02 -7.3871886904273267e-03 0.0000000000000000e+00  3.2188176361340144e-02 -5.6445086316010704e-03 0.0000000000000000e+00  1.5716318365746731e-02 -4.6816458909690589e-03 0.0000000000000000e+00  -6.6680366699610450e-04 -4.3829491295597506e-03 0.0000000000000000e+00  -1.7091106778498254e-02 -4.7103708160504756e-03 0.0000000000000000e+00  -3.3677604240667826e-02 -5.6821220506794194e-03 0.0000000000000000e+00  -5.0521411634827026e-02 -7.3513337656898126e-03 0.0000000000000000e+00  -5.0660589262363907e-02 4.6499045653450232e-03 0.0000000000000000e+00  -5.0735470782999649e-02 1.6575542170496543e-02 0.0000000000000000e+00  -3.7812691527716553e-02 1.1824811373064877e-02 0.0000000000000000e+00  -2.5120150835089571e-02 7.6030007527523695e-03 0.0000000000000000e+00  -1.2537770172637281e-02 3.7195396026480088e-03 0.0000000000000000e+00  0.0000000000000000e+00 0.0000000000000000e+00 0.0000000000000000e+00  0.0000000000000000e+00 0.0000000000000000e+00 0.0000000000000000e+00  1.7379693344304861e-02 3.3671478078218238e-03 0.0000000000000000e+00  3.5089384608668742e-02 6.8589768216457282e-03 0.0000000000000000e+00  5.3487035681789155e-02 1.0602364119314733e-02 0.0000000000000000e+00  7.2989677260777236e-02 1.4726391491138533e-02 0.0000000000000000e+00  7.3675120566112029e-02 4.5189081159154225e-03 0.0000000000000000e+00  7.3023706811852648e-02 -5.6344855957833860e-03 0.0000000000000000e+00  4.7604037092618755e-02 -4.3360639803480721e-03 0.0000000000000000e+00  2.3183290422501359e-02 -3.5434016276173715e-03 0.0000000000000000e+00  -7.6711971494447301e-04 -3.2392010371502318e-03 0.0000000000000000e+00  -2.4747828148735197e-02 -3.4121791620981483e-03 0.0000000000000000e+00  -4.9259906575315052e-02 -4.0625691231649550e-03 0.0000000000000000e+00  -7.4836482385307462e-02 -5.1995996303336343e-03 0.0000000000000000e+00  -7.5573284944058877e-02 4.9478958317348354e-03 0.0000000000000000e+00  -7.4935345719381458e-02 1.5103434489540548e-02 0.0000000000000000e+00  -5.4906594599398104e-02 1.0860651620246055e-02 0.0000000000000000e+00  -3.6014783309938792e-02 7.0224674042176872e-03 0.0000000000000000e+00  -1.7835903040290656e-02 3.4467331357111780e-03 0.0000000000000000e+00  0.0000000000000000e+00 0.0000000000000000e+00 0.0000000000000000e+00  0.0000000000000000e+00 0.0000000000000000e+00 0.0000000000000000e+00  2.1337385175438466e-02 2.5290261131516883e-03 0.0000000000000000e+00  4.3203120292247592e-02 5.1275984679437199e-03 0.0000000000000000e+00  6.6152885111631823e-02 7.8640395853501154e-03 0.0000000000000000e+00  9.0797471972776239e-02 1.0803877596038075e-02 0.0000000000000000e+00  9.1839998969357239e-02 4.4700967547811245e-03 0.0000000000000000e+00  9.0835631929913660e-02 -1.8551913697149726e-03 0.0000000000000000e+00  5.9038565844514758e-02 -1.0080763541233410e-03 0.0000000000000000e+00  2.8776188431739506e-02 -4.5484786396288054e-04 0.0000000000000000e+00  -7.4674354236669552e-04 -1.9026702335195799e-04 0.0000000000000000e+00  -3.0287288965346770e-02 -2.0783185571098423e-04 0.0000000000000000e+00  -6.0601183727501742e-02 -4.9980987617498796e-04 0.0000000000000000e+00  -9.2481259758684722e-02 -1.0558842706243044e-03 0.0000000000000000e+00  -9.3546858457459622e-02 5.1750874895075032e-03 0.0000000000000000e+00  -9.2534855900224686e-02 1.1387658906815673e-02 0.0000000000000000e+00  -6.7432976574205314e-02 8.2765764252052468e-03 0.0000000000000000e+00  -4.4045165428481720e-02 5.3911857647376393e-03 0.0000000000000000e+00  -2.1754868120758043e-02 2.6575570806267896e-03 0.0000000000000000e+00  0.0000000000000000e+00 0.0000000000000000e+00 0.0000000000000000e+00  0.0000000000000000e+00 0.0000000000000000e+00 0.0000000000000000e+00  2.3177161360936647e-02 1.4127963393793519e-03 0.0000000000000000e+00  4.6971691167361412e-02 2.8446148850218254e-03 0.0000000000000000e+00  7.2024560446949590e-02 4.3124494948349338e-03 0.0000000000000000e+00  9.9024243955337918e-02 5.8291895157861389e-03 0.0000000000000000e+00  1.0021719482598496e-01 4.4643004419049814e-03 0.0000000000000000e+00  9.9041757369535369e-02 3.1078880610864962e-03 0.0000000000000000e+00  6.4353146977822961e-02 3.4929924593578186e-03 0.0000000000000000e+00  3.1419869700253102e-02 3.7862390295930058e-03 0.0000000000000000e+00  -6.5620563587611054e-04 3.9846053425385440e-03 0.0000000000000000e+00  -3.2741069248314048e-02 4.0915767991244857e-03 0.0000000000000000e+00  -6.5700175722311710e-02 4.1168908950568392e-03 0.0000000000000000e+00  -1.0043054312635473e-01 4.0771266164680558e-03 0.0000000000000000e+00  -1.0162875329867398e-01 5.2917719484126425e-03 0.0000000000000000e+00  -1.0044813549501959e-01 6.4929104997138339e-03 0.0000000000000000e+00  -7.3082637764911834e-02 4.7892884975960937e-03 0.0000000000000000e+00  -4.7672452993478484e-02 3.1525214034819581e-03 0.0000000000000000e+00  -2.3526096574239805e-02 1.5637802132279972e-03 0.0000000000000000e+00  1.0601909731520342e-09 -1.3759852311651538e-09 0.0000000000000000e+00  0.0000000000000000e+00 0.0000000000000000e+00 0.0000000000000000e+00  2.2543230572349832e-02 2.2054384117846189e-04 0.0000000000000000e+00  4.5697810428040248e-02 4.1754341836163709e-04 0.0000000000000000e+00  7.0093647514425303e-02 5.6514711204160169e-04 0.0000000000000000e+00  9.6399584544885508e-02 6.3286066088803338e-04 0.0000000000000000e+00  9.7568007757374203e-02 4.5102071425477544e-03 0.0000000000000000e+00  9.6408908041633490e-02 8.3959303673638002e-03 0.0000000000000000e+00  6.2665783848662185e-02 8.3606514573569962e-03 0.0000000000000000e+00  3.0644085016032732e-02 8.4058031396560366e-03 0.0000000000000000e+00  -5.3094085973746366e-04 8.5240880655764201e-03 0.0000000000000000e+00  -3.1707696628208153e-02 8.7166875374888909e-03 0.0000000000000000e+00  -6.3734239442801516e-02 8.9930987503088842e-03 0.0000000000000000e+00  -9.7484340073038675e-02 9.3713010622668465e-03 0.0000000000000000e+00  -9.8637324607046065e-02 5.3313677166790885e-03 0.0000000000000000e+00  -9.7462992432767070e-02 1.2823367212351946e-03 0.0000000000000000e+00  -7.0893275247131751e-02 1.0346779295466791e-03 0.0000000000000000e+00  -4.6231697434278414e-02 7.2224925910472845e-04 0.0000000000000000e+00  -2.2810495830300606e-02 3.7040911779767329e-04 0.0000000000000000e+00  0.0000000000000000e+00 0.0000000000000000e+00 0.0000000000000000e+00  0.0000000000000000e+00 0.0000000000000000e+00 0.0000000000000000e+00  1.9459408168711462e-02 -8.7757789144844842e-04 0.0000000000000000e+00  3.9449404447728244e-02 -1.8120194050182869e-03 0.0000000000000000e+00  6.0506484123870566e-02 -2.8626822042879937e-03 0.0000000000000000e+00  8.3202852149838247e-02 -4.0935660467339768e-03 0.0000000000000000e+00  8.4208349584866379e-02 4.5990486072524572e-03 0.0000000000000000e+00  8.3212319703394502e-02 1.3298246397098080e-02 0.0000000000000000e+00  5.4111861345927596e-02 1.2907389417883372e-02 0.0000000000000000e+00  2.6490348494393190e-02 1.2733564005569204e-02 0.0000000000000000e+00  -3.9943452877620224e-04 1.2767022040490109e-02 0.0000000000000000e+00  -2.7285359356052929e-02 1.3007285670569784e-02 0.0000000000000000e+00  -5.4894934639279434e-02 1.3462953631682161e-02 0.0000000000000000e+00  -8.3975029786823543e-02 1.4151834497293514e-02 0.0000000000000000e+00  -8.4941480331222077e-02 5.3091361386582584e-03 0.0000000000000000e+00  -8.3917006874205571e-02 -3.5401937865307694e-03 0.0000000000000000e+00  -6.1052554565684182e-02 -2.4606192827217751e-03 0.0000000000000000e+00  -3.9818328749253208e-02 -1.5501910989126075e-03 0.0000000000000000e+00  -1.9647019754045550e-02 -7.4850832551388575e-04 0.0000000000000000e+00  0.0000000000000000e+00 0.0000000000000000e+00 0.0000000000000000e+00  0.0000000000000000e+00 0.0000000000000000e+00 0.0000000000000000e+00  1.4263036068781086e-02 -1.7483918449945203e-03 0.0000000000000000e+00  2.8910901320395803e-02 -3.5773288230522920e-03 0.0000000000000000e+00  4.4337706638484263e-02 -5.5697816871499804e-03 0.0000000000000000e+00  6.0962006327017787e-02 -7.8136101173193126e-03 0.0000000000000000e+00  6.1699775527549724e-02 4.7204905753157637e-03 0.0000000000000000e+00  6.0978100967059891e-02 1.7259014130003147e-02 0.0000000000000000e+00  3.9657883235235968e-02 1.6588293431058204e-02 0.0000000000000000e+00  1.9418151245609160e-02 1.6233975158889215e-02 0.0000000000000000e+00  -2.8419624352054950e-04 1.6184508104368289e-02 0.0000000000000000e+00  -1.9978669055972096e-02 1.6438055606607431e-02 0.0000000000000000e+00  -4.0194360414948699e-02 1.7001790355187285e-02 0.0000000000000000e+00  -6.1472612720966519e-02 1.7892923489315756e-02 0.0000000000000000e+00  -6.2147428263599439e-02 5.2410855905049023e-03 0.0000000000000000e+00  -6.1381078247479216e-02 -7.4149940277655141e-03 0.0000000000000000e+00  -4.4672844109801754e-02 -5.2791673958940835e-03 0.0000000000000000e+00  -2.9142428181679642e-02 -3.3875703312686309e-03 0.0000000000000000e+00  -1.4381312776132651e-02 -1.6547064728030917e-03 0.0000000000000000e+00  0.0000000000000000e+00 0.0000000000000000e+00 0.0000000000000000e+00  0.0000000000000000e+00 0.0000000000000000e+00 0.0000000000000000e+00  7.5210779291239359e-03 -2.2971846784539435e-03 0.0000000000000000e+00  1.5245286600113093e-02 -4.6887511980705857e-03 0.0000000000000000e+00  2.3381173160714010e-02 -7.2715272842143533e-03 0.0000000000000000e+00  3.2146267628325460e-02 -1.0147257960764091e-02 0.0000000000000000e+00  3.2545849424723564e-02 4.8617048734674127e-03 0.0000000000000000e+00  3.2173002473925898e-02 1.9872326445618111e-02 0.0000000000000000e+00  2.0901028153876251e-02 1.9005652570598424e-02 0.0000000000000000e+00  1.0204731949503712e-02 1.8516688060642803e-02 0.0000000000000000e+00  -2.0185040245452614e-04 1.8392339972782785e-02 0.0000000000000000e+00  -1.0597675738744353e-02 1.8629175120835510e-02 0.0000000000000000e+00  -2.1261300985090111e-02 1.9233372546148791e-02 0.0000000000000000e+00  -3.2477646393667910e-02 2.0220791553230866e-02 0.0000000000000000e+00  -3.2792685357135844e-02 5.1410812019602814e-03 0.0000000000000000e+00  -3.2358661904950355e-02 -9.9411319880911165e-03 0.0000000000000000e+00  -2.3563697838889126e-02 -7.12074492296