<?xml version="1.0"?>
<VTKFile type="UnstructuredGrid"  version="0.1"  >
<UnstructuredGrid>
<Piece  NumberOfPoints="589" NumberOfCells="1080">
<Points>
<DataArray  type="Float64"  NumberOfComponents="3"  format="ascii">-9 0 0  -8 0 0  -7 0 0  -6 0 0  -5 0 0  -4 0 0  -3 0 0  -2 0 0  -1 0 0  0 0 0  1 0 0  2 0 0  3 0 0  4 0 0  5 0 0  6 0 0  7 0 0  8 0 0  9 0 0  -9 2 0  -8.000004602377965 1.999993179944568 0  -7.00000964229231 1.999987196448734 0  -6.000016156256574 1.999982728556793 0  -5.000026520496546 1.999980073590336 0  -4.000015782385847 1.999985137049651 0  -3.000004748205944 1.99998991172686 0  -1.999999353397351 1.99999438283884 0  -0.9999984226298143 1.999997920167325 0  -2.856026306810761e-07 1.99999948644498 0  0.9999976316259546 1.999998453623874 0  1.99999782177341 1.999995087323708 0  3.000001950987114 1.999990971922117 0  4.00001051381015 1.999986619506584 0  5.000022879399994 1.999985006497953 0  6.00001373930777 1.999985542849939 0  7.000008150308577 1.999988813470985 0  8.000003888788493 1.999993935108061 0  9 2 0  -9 4 0  -8.000007454546273 3.999983013912416 0  -7.00001338839412 3.99996833067772 0  -6.000016911380088 3.999958205517959 0  -5.000018203716802 3.999954787202615 0  -4.000002616520114 3.999957203119699 0  -2.999992151040605 3.999970628103772 0  -1.999989385095378 3.999988077585572 0  -0.9999933007180758 4.000002121158214 0  -8.564997287002656e-07 4.00000782272013 0  0.9999914138075656 4.000003518942155 0  1.999986903747868 3.999991775976911 0  2.999989001668332 3.999975891656131 0  3.999998734341 3.999960000112206 0  5.000013637474154 3.999954948537577 0  6.000013274193178 3.999960148785974 0  7.000010990639455 3.999970223145418 0  8.000006286549157 3.999984097475263 0  9 4 0  -9 6 0  -8.000016389175375 5.99996363774394 0  -7.000026777915249 5.999931233784788 0  -6.000026589108621 5.999906856231792 0  -5.000014514641008 5.99989439920101 0  -3.999984166216739 5.999914336380229 0  -2.999970361799462 5.999955837739709 0  -1.9999758201329 5.999999312527585 0  -0.9999894027620376 6.000023469537519 0  -3.118762715018835e-06 6.000028365385866 0  0.9999845834290382 6.000020653803615 0  1.999975231593239 5.999999252640294 0  2.999971725897297 5.999963099670343 0  3.999978827567488 5.999925684459996 0  5.000004492619529 5.999907339408299 0  6.000020490147026 5.999915259349252 0  7.000023512780333 5.999936434162136 0  8.000015013655368 5.999966148223055 0  9 6 0  -9 8 0  -8.00004932163368 7.999928434258639 0  -7.000082475388932 7.999862037574062 0  -6.000083808200399 7.999807831066724 0  -5.000039953003347 7.999777382147655 0  -3.999981191699888 7.999869111352158 0  -2.999992146237767 7.99997687390754 0  -2.000014324384721 8.000029322100762 0  -1.000016301195666 8.000035203202785 0  -3.238802811408462e-06 8.000036894067332 0  1.000006578438535 8.000042127792044 0  2.000002639200531 8.000020481917103 0  2.999977357718589 7.999983623664092 0  3.999968863860536 7.999892164468961 0  5.000026162135972 7.999788982059833 0  6.00007960121586 7.999817358999361 0  7.000082116864326 7.999868494723027 0  8.000049794538691 7.999931653032614 0  9 8 0  -9 10 0  -8.000146895912133 9.999872578458422 0  -7.000265425571718 9.999744117722933 0  -6.000321749217993 9.999613836583443 0  -5.000268769081181 9.999481557388423 0  -4.000175450352998 9.999778017578441 0  -3.000190962721037 10.000032931773 0  -2.000153407501466 9.99998876743231 0  -1.000071618686481 9.999974601332577 0  -1.150156812451734e-05 9.99997115281637 0  1.00004804026431 9.999971447010125 0  2.000127174600823 9.999969979372501 0  3.0001969278502 10.00006086068306 0  4.000188399245229 9.99982171356679 0  5.000293428576293 9.999506207607579 0  6.000342343337038 9.999628471752713 0  7.000280033397506 9.999752491851478 0  8.000154438535118 9.999876420238261 0  9 10 0  -9 12 0  -8.000357797373917 11.99982093060517 0  -7.000696974875982 11.99963356584707 0  -6.000996470327529 11.99942798483803 0  -5.001230182647443 11.99919034733562 0  -4.001182160130234 11.99973160579292 0  -3.001225430645489 12.00026755457015 0  -2.000844813724759 12.0002023524488 0  -1.000420630035809 12.00016673072003 0  2.020672602766058e-05 12.00015920405107 0  1.00046571137567 12.00018084679916 0  2.000905839459506 12.00023808742896 0  3.001320801522219 12.00034705913779 0  4.001275646617145 11.99977329925751 0  5.00130595794783 11.9991948812752 0  6.001049676707703 11.99943267141475 0  7.000730935871286 11.99963692381382 0  8.000374363270224 11.99982262404236 0  9 12 0  -9 14 0  -8.000642893325498 13.99980252218676 0  -7.001286796214292 13.99959597931563 0  -6.001933543730281 13.99937050560431 0  -5.002587166621497 13.99911466628844 0  -4.002593476357808 13.99974845340278 0  -3.002597525589438 14.00039026616938 0  -2.001711023286738 14.00029772225975 0  -1.000836491548342 14.00024657384972 0  3.330471085608228e-05 14.00023066341783 0  1.0009052973108 14.00024795988382 0  2.001785949202929 14.00029942204506 0  3.002680357192958 14.00038786484152 0  4.002687798892085 13.99975129960432 0  5.002691772499796 13.99911872417844 0  6.00200617358689 13.9993712426589 0  7.001332770581796 13.99959569624095 0  8.000665204762084 13.99980219700719 0  9 14 0  -9 16 0  -8.000923561534645 15.99982041270689 0  -7.001864597816686 15.99963419794243 0  -6.002842083835205 15.9994346116914 0  -5.003878108676141 15.99921479110392 0  -4.003914531290147 15.99975721133473 0  -3.003879999776869 16.00029675933579 0  -2.002530353659567 16.00022782101259 0  -1.001233853678392 16.00018571525385 0  3.762853605093248e-05 16.00016952071865 0  1.00131070455617 16.00017863205104 0  2.002612008341495 16.0002130549934 0  3.0039698784792 16.00027327240666 0  4.004009027705361 15.99973514575317 0  5.003975209410758 15.99919658589372 0  6.002912746188356 15.99942222315103 0  7.001910566037567 15.99962638466321 0  8.000946190540969 15.99981661611524 0  9 16 0  -9 18 0  -8.001133923494121 17.99986482333024 0  -7.002295862355308 17.9997259429546 0  -6.00351528577336 17.99957972056815 0  -5.004824576163852 17.99942267106557 0  -4.004879921771827 17.99975946124468 0  -3.004826601202436 18.00009580438192 0  -2.00313837792307 18.00005084851304 0  -1.001531748332389 18.00002147661581 0  3.554866873117505e-05 18.00000741605546 0  1.001603737993506 18.00000831321958 0  2.003212988991661 18.0000237544443 0  3.004905371027334 18.00005318698542 0  4.004961966365789 17.99972289864537 0  5.004908326575357 17.99939357295172 0  6.003576884188536 17.99955920229953 0  7.002336326004681 17.99971285210809 0  8.001153970575885 17.99985844678006 0  9 18 0  -9 20 0  -8.001231842592878 19.99992404241888 0  -7.002496434914457 19.99984706588246 0  -6.003827780535047 19.99976815974931 0  -5.005262394693276 19.99968663013992 0  -4.005325708582106 19.99975961556207 0  -3.005263267670693 19.99983214001688 0  -2.00342147402152 19.99981172899348 0  -1.001673004319176 19.99979618702276 0  2.986648707970532e-05 19.99978567415319 0  1.001733140338458 19.99978000521558 0  2.00348279289159 19.99977866164448 0  3.005326476516301 19.99978076139917 0  4.005390082685785 19.99971661653421 0  5.005327492394217 19.99965315656236 0  6.003876146218264 19.99974412644665 0  7.002528451806543 19.99983155348674 0  8.001247781071976 19.99991643872594 0  8.999999999992006 19.99999999999864 0  -9 22 0  -8.001198410469559 21.99998732997266 0  -7.002429245085614 21.99997590538715 0  -6.003725947869682 21.99996709405007 0  -5.00512399858905 21.99996251100887 0  -4.005186034799854 21.99975713397723 0  -3.005124462497595 21.9995512796428 0  -2.00333273911646 21.99955319665683 0  -1.001632556970521 21.99955084994152 0  2.25670812054343e-05 21.99954462519711 0  1.001677708249765 21.99953445895123 0  2.00337792102111 21.99951984696131 0  3.005169627297218 21.99949983576119 0  4.005230774127352 21.99971443711453 0  5.005168470647652 21.99992947263852 0  6.003759512859475 21.99994321793071 0  7.002451710131762 21.99996041482703 0  8.001209666152659 21.99997971248173 0  9 22 0  -9 24 0  -8.001034920612996 24.00004563586913 0  -7.002097818003679 24.00009429130553 0  -6.003217451839658 24.0001491119464 0  -5.004424112887214 24.00021350168246 0  -4.00447756597583 23.99975237700544 0  -3.0044246955855 23.99929085297904 0  -2.002879259715356 23.99931166293802 0  -1.001412533439411 23.99932097160663 0  1.52315113439999e-05 23.99931928805551 0  1.001442713684805 23.99930663712877 0  2.002908573075958 23.99928256196078 0  3.004452502902744 23.99924612026071 0  4.004503670586939 23.99971547054632 0  5.00444924147115 24.00018511666665 0  6.003237021282987 24.00012849548008 0  7.002111197243432 24.00008086713579 0  8.001041705743221 24.00003901998048 0  9 24 0  -9 26 0  -8.000759111619351 26.00009187073933 0  -7.001538637071182 26.00018801949815 0  -6.002359532523142 26.00029285241826 0  -5.003243774568994 26.00041103772378 0  -4.003283103025668 25.99974581371281 0  -3.003244869704578 25.99908029898976 0  -2.002112309034707 25.99911600512856 0  -1.001037284303011 25.99913493366242 0  9.084982496947043e-06 25.99913768995911 0  1.001054951327546 25.99912437791541 0  2.002128448583723 25.99909460226386 0  3.003258400366549 25.99904746462214 0  4.003294014138563 25.99971883449403 0  5.00325319833522 26.00039037828187 0  6.002367711783367 26.00027780315589 0  7.001544606515914 26.00017819867855 0  8.000762246962765 26.00008702386323 0  9 26 0  -9 28 0  -8.000401171804885 28.00012100190158 0  -7.000813108305394 28.00024701570665 0  -6.001246870179465 28.00038318295653 0  -5.001714020674404 28.00053490719831 0  -4.001735478365075 27.99973810104592 0  -3.001715837777497 27.99894115737337 0  -2.001116552879637 27.99898732305059 0  -1.000548019190783 27.99901344799561 0  5.010079113611083e-06 27.99902022354938 0  1.000557397527549 27.99900783068194 0  2.001123985253828 27.99897594028311 0  3.001719958681281 27.9989237121105 0  4.001736428619189 27.99972381985561 0  5.001713183409349 28.00052402408678 0  6.001247602451707 28.00037523934575 0  7.000814231812224 28.00024182390385 0  8.000401920539121 28.000
[...]
<PointData  Vectors="f_44-2"> 
<DataArray  type="Float64"  Name="f_44-2"  NumberOfComponents="3" format="ascii">0.0000000000000000e+00 0.0000000000000000e+00 0.0000000000000000e+00  0.0000000000000000e+00 0.0000000000000000e+00 0.0000000000000000e+00  0.0000000000000000e+00 0.0000000000000000e+00 0.0000000000000000e+00  0.0000000000000000e+00 0.0000000000000000e+00 0.0000000000000000e+00  0.0000000000000000e+00 0.0000000000000000e+00 0.0000000000000000e+00  0.0000000000000000e+00 0.0000000000000000e+00 0.0000000000000000e+00  0.0000000000000000e+00 0.0000000000000000e+00 0.0000000000000000e+00  0.0000000000000000e+00 0.0000000000000000e+00 0.0000000000000000e+00  0.0000000000000000e+00 0.0000000000000000e+00 0.0000000000000000e+00  0.0000000000000000e+00 0.0000000000000000e+00 0.0000000000000000e+00  0.0000000000000000e+00 0.0000000000000000e+00 0.0000000000000000e+00  0.0000000000000000e+00 0.0000000000000000e+00 0.0000000000000000e+00  0.0000000000000000e+00 0.0000000000000000e+00 0.0000000000000000e+00  0.0000000000000000e+00 0.0000000000000000e+00 0.0000000000000000e+00  0.0000000000000000e+00 0.0000000000000000e+00 0.0000000000000000e+00  0.0000000000000000e+00 0.0000000000000000e+00 0.0000000000000000e+00  0.0000000000000000e+00 0.0000000000000000e+00 0.0000000000000000e+00  0.0000000000000000e+00 0.0000000000000000e+00 0.0000000000000000e+00  0.0000000000000000e+00 0.0000000000000000e+00 0.0000000000000000e+00  0.0000000000000000e+00 0.0000000000000000e+00 0.0000000000000000e+00  -4.0272588701349262e-05 -6.5542313791543765e-05 0.0000000000000000e+00  -8.3976080176614802e-05 -1.2228752828783649e-04 0.0000000000000000e+00  -1.4032262887834628e-04 -1.6300548198754498e-04 0.0000000000000000e+00  -2.3132448936884981e-04 -1.8423787412606040e-04 0.0000000000000000e+00  -1.2917912069075838e-04 -1.3947327915442116e-04 0.0000000000000000e+00  -2.5991101349920632e-05 -9.3271661027260322e-05 0.0000000000000000e+00  2.1761727072825453e-05 -4.8260869859061763e-05 0.0000000000000000e+00  2.4432509521891902e-05 -1.2526524027688387e-05 0.0000000000000000e+00  -1.1497600005732723e-06 3.3048237178445876e-06 0.0000000000000000e+00  -2.8835686673809147e-05 -7.3868365348652830e-06 0.0000000000000000e+00  -3.3212739906788589e-05 -4.1853356641759921e-05 0.0000000000000000e+00  2.5327670146530773e-06 -8.3576105362050181e-05 0.0000000000000000e+00  8.3102770280344898e-05 -1.2688311029581482e-04 0.0000000000000000e+00  2.0118114996841096e-04 -1.4092958210510040e-04 0.0000000000000000e+00  1.2047371997071293e-04 -1.3857563472557767e-04 0.0000000000000000e+00  7.1812586723697170e-05 -1.0830111408689890e-04 0.0000000000000000e+00  3.4487993430071282e-05 -5.9010490927470868e-05 0.0000000000000000e+00  0.0000000000000000e+00 0.0000000000000000e+00 0.0000000000000000e+00  0.0000000000000000e+00 0.0000000000000000e+00 0.0000000000000000e+00  -6.6820416338381157e-05 -1.6626782242792920e-04 0.0000000000000000e+00  -1.1738029494547729e-04 -3.0868024174372604e-04 0.0000000000000000e+00  -1.4202368569613398e-04 -4.0395108757176288e-04 0.0000000000000000e+00  -1.4242020706132155e-04 -4.3006746575514801e-04 0.0000000000000000e+00  1.0406620784374413e-05 -4.0673440944332675e-04 0.0000000000000000e+00  1.1017931702121375e-04 -2.7061589702319247e-04 0.0000000000000000e+00  1.3030916475882158e-04 -9.3525054836008384e-05 0.0000000000000000e+00  8.1353976946859624e-05 4.9484229264080589e-05 0.0000000000000000e+00  -4.9091739827931382e-06 1.0736268511638442e-04 0.0000000000000000e+00  -9.2843877358785807e-05 6.2744217451608553e-05 0.0000000000000000e+00  -1.4759141746909161e-04 -5.7803394699052808e-05 0.0000000000000000e+00  -1.3418484538851199e-04 -2.2046421321788673e-04 0.0000000000000000e+00  -4.1588218600602926e-05 -3.8319987045752103e-04 0.0000000000000000e+00  1.0596402749980436e-04 -4.3411369635232110e-04 0.0000000000000000e+00  1.1276179773749022e-04 -3.8883024310192954e-04 0.0000000000000000e+00  9.8278005263115190e-05 -2.9266124255477764e-04 0.0000000000000000e+00  5.7627658395499635e-05 -1.5689484060076161e-04 0.0000000000000000e+00  0.0000000000000000e+00 0.0000000000000000e+00 0.0000000000000000e+00  0.0000000000000000e+00 0.0000000000000000e+00 0.0000000000000000e+00  -1.5840349213845414e-04 -3.6238872851486671e-04 0.0000000000000000e+00  -2.5444959653780523e-04 -6.8361486472034950e-04 0.0000000000000000e+00  -2.4071171150334355e-04 -9.2149079223281165e-04 0.0000000000000000e+00  -1.0380616379875573e-04 -1.0358588217682175e-03 0.0000000000000000e+00  2.0166851825817602e-04 -8.3102259765347364e-04 0.0000000000000000e+00  3.3657016497918207e-04 -4.0502493484233405e-04 0.0000000000000000e+00  2.7229696043746209e-04 4.1218151668156811e-05 0.0000000000000000e+00  1.2434593513405501e-04 2.8861677242679804e-04 0.0000000000000000e+00  -2.4817637552695421e-05 3.3786895870883905e-04 0.0000000000000000e+00  -1.5960159856001830e-04 2.5849013188600673e-04 0.0000000000000000e+00  -2.6439978630427913e-04 3.8153594746745117e-05 0.0000000000000000e+00  -3.0842483483557915e-04 -3.3498233945217503e-04 0.0000000000000000e+00  -2.4215704281165180e-04 -7.2151942286305967e-04 0.0000000000000000e+00  1.6308336750529338e-05 -9.1226542364467326e-04 0.0000000000000000e+00  1.9017501607012386e-04 -8.4260450658811049e-04 0.0000000000000000e+00  2.2940228624137150e-04 -6.3538549107094685e-04 0.0000000000000000e+00  1.4866624661288906e-04 -3.3926897374395373e-04 0.0000000000000000e+00  0.0000000000000000e+00 0.0000000000000000e+00 0.0000000000000000e+00  0.0000000000000000e+00 0.0000000000000000e+00 0.0000000000000000e+00  -4.9921257661314630e-04 -7.2303755737998488e-04 0.0000000000000000e+00  -8.3060697282478461e-04 -1.3918184162614014e-03 0.0000000000000000e+00  -8.3204221649750250e-04 -1.9329316101074187e-03 0.0000000000000000e+00  -3.6671212737137841e-04 -2.2258699273483679e-03 0.0000000000000000e+00  2.3462870778842419e-04 -1.2800564650779350e-03 0.0000000000000000e+00  1.1306094136987557e-04 -1.6969099537463944e-04 0.0000000000000000e+00  -1.2338880208407965e-04 3.6842388867153631e-04 0.0000000000000000e+00  -1.5040857409296220e-04 4.2552108441209715e-04 0.0000000000000000e+00  -2.1302863127665834e-05 4.4182782260048181e-04 0.0000000000000000e+00  7.3537342987840709e-05 4.9781143021425443e-04 0.0000000000000000e+00  2.6277836947113654e-05 2.7493262034352777e-04 0.0000000000000000e+00  -2.4407164232985885e-04 -1.0244465862610213e-04 0.0000000000000000e+00  -3.4328569302061846e-04 -1.0493432518442884e-03 0.0000000000000000e+00  2.4232708766744906e-04 -2.1204337246159195e-03 0.0000000000000000e+00  8.0604844450600120e-04 -1.8464300283000403e-03 0.0000000000000000e+00  8.4027129079632926e-04 -1.3335620776502367e-03 0.0000000000000000e+00  5.1133365425282183e-04 -6.9414975464528216e-04 0.0000000000000000e+00  0.0000000000000000e+00 0.0000000000000000e+00 0.0000000000000000e+00  0.0000000000000000e+00 0.0000000000000000e+00 0.0000000000000000e+00  -1.5106669879442552e-03 -1.3002094596451267e-03 0.0000000000000000e+00  -2.7249302298692295e-03 -2.6099416335754796e-03 0.0000000000000000e+00  -3.2897978979811852e-03 -3.9357830672167296e-03 0.0000000000000000e+00  -2.7146952355122083e-03 -5.2772937918367912e-03 0.0000000000000000e+00  -1.7531592432548585e-03 -2.2032289645365711e-03 0.0000000000000000e+00  -1.9299327870684491e-03 4.3567441635232934e-04 0.0000000000000000e+00  -1.5552151199229199e-03 -3.4205058986455344e-05 0.0000000000000000e+00  -7.1713922642115580e-04 -1.8503224543511669e-04 0.0000000000000000e+00  -1.0406335877255668e-04 -2.2197568766130554e-04 0.0000000000000000e+00  5.0341691659346879e-04 -2.1787138703007611e-04 0.0000000000000000e+00  1.3161090597988119e-03 -2.3008361387845112e-04 0.0000000000000000e+00  2.0236712115087917e-03 7.3102136958665283e-04 0.0000000000000000e+00  1.9183127377303633e-03 -1.7565527830068594e-03 0.0000000000000000e+00  3.0085914293409019e-03 -5.0477761963031182e-03 0.0000000000000000e+00  3.5385800037392675e-03 -3.8046864860747688e-03 0.0000000000000000e+00  2.9029403683302887e-03 -2.5373453582258200e-03 0.0000000000000000e+00  1.6030385242328837e-03 -1.2676205718060911e-03 0.0000000000000000e+00  0.0000000000000000e+00 0.0000000000000000e+00 0.0000000000000000e+00  0.0000000000000000e+00 0.0000000000000000e+00 0.0000000000000000e+00  -3.7048094270599819e-03 -1.8382053281234074e-03 0.0000000000000000e+00  -7.2120526225017611e-03 -3.7617928892437120e-03 0.0000000000000000e+00  -1.0298537866876456e-02 -5.8728840899019861e-03 0.0000000000000000e+00  -1.2687003563191327e-02 -8.3138966294106359e-03 0.0000000000000000e+00  -1.2189506831267799e-02 -2.6748048129120981e-03 0.0000000000000000e+00  -1.2652126088980959e-02 2.9078995428705201e-03 0.0000000000000000e+00  -8.7138430027812221e-03 2.2286917262009111e-03 0.0000000000000000e+00  -4.3118149389617709e-03 1.8589365172900219e-03 0.0000000000000000e+00  2.6714768469100877e-04 1.7838208197875234e-03 0.0000000000000000e+00  4.8926780187705738e-03 2.0149353885902574e-03 0.0000000000000000e+00  9.4542050819716970e-03 2.6193547083432720e-03 0.0000000000000000e+00  1.3737271935415274e-02 3.7652102648340954e-03 0.0000000000000000e+00  1.3246322621808561e-02 -2.2474026862714519e-03 0.0000000000000000e+00  1.3563104818307671e-02 -8.3110991720909740e-03 0.0000000000000000e+00  1.0927040539515445e-02 -5.8575841566363149e-03 0.0000000000000000e+00  7.6193713675488817e-03 -3.7492149273340740e-03 0.0000000000000000e+00  3.9052948884489153e-03 -1.8317794193380534e-03 0.0000000000000000e+00  0.0000000000000000e+00 0.0000000000000000e+00 0.0000000000000000e+00  0.0000000000000000e+00 0.0000000000000000e+00 0.0000000000000000e+00  -6.6831449529518566e-03 -2.0334363253622402e-03 0.0000000000000000e+00  -1.3372476240065909e-02 -4.1614886911612685e-03 0.0000000000000000e+00  -2.0082697075959308e-02 -6.4871695239458382e-03 0.0000000000000000e+00  -2.6849673719237598e-02 -9.1300260026540205e-03 0.0000000000000000e+00  -2.6917591114751276e-02 -2.4967622173229834e-03 0.0000000000000000e+00  -2.6975948731300083e-02 4.2193620386627240e-03 0.0000000000000000e+00  -1.7738899611904554e-02 3.2560328826574461e-03 0.0000000000000000e+00  -8.6192822206334757e-03 2.7263490216167773e-03 0.0000000000000000e+00  4.5344533545861203e-04 2.5667606423967742e-03 0.0000000000000000e+00  9.5467522939946935e-03 2.7565950252169073e-03 0.0000000000000000e+00  1.8722922771328556e-02 3.3062664982610752e-03 0.0000000000000000e+00  2.8029226726585844e-02 4.2455462335435068e-03 0.0000000000000000e+00  2.8087178283978921e-02 -2.4725649102379328e-03 0.0000000000000000e+00  2.8129014275212801e-02 -9.1498454119776328e-03 0.0000000000000000e+00  2.0987476691097021e-02 -6.5251785682620220e-03 0.0000000000000000e+00  1.3952985027009214e-02 -4.1945282838014158e-03 0.0000000000000000e+00  6.9671680441693758e-03 -2.0517705690821374e-03 0.0000000000000000e+00  0.0000000000000000e+00 0.0000000000000000e+00 0.0000000000000000e+00  0.0000000000000000e+00 0.0000000000000000e+00 0.0000000000000000e+00  -9.6284166204739143e-03 -1.8493714473711512e-03 0.0000000000000000e+00  -1.9435633347814136e-02 -3.7689134750471796e-03 0.0000000000000000e+00  -2.9617762794754768e-02 -5.8301091742098731e-03 0.0000000000000000e+00  -4.0401000210485462e-02 -8.1061147760431527e-03 0.0000000000000000e+00  -4.0784976843356545e-02 -2.4003808100593813e-03 0.0000000000000000e+00  -4.0436144207142213e-02 3.2762165054014566e-03 0.0000000000000000e+00  -2.6315714264693323e-02 2.5554515246062103e-03 0.0000000000000000e+00  -1.2748641668901259e-02 2.1187442787177829e-03 0.0000000000000000e+00  5.5771630509754530e-04 1.9568506915948929e-03 0.0000000000000000e+00  1.3879272556736875e-02 2.0636059461552883e-03 0.0000000000000000e+00  2.7492088030798816e-02 2.4394917025042529e-03 0.0000000000000000e+00  4.1689846535207319e-02 3.0902487950853056e-03 0.0000000000000000e+00  4.2085114671241139e-02 -2.6375953237018032e-03 0.0000000000000000e+00  4.1729712182075628e-02 -8.3695017520583320e-03 0.0000000000000000e+00  3.0595227184724270e-02 -6.0134586328964915e-03 0.0000000000000000e+00  2.0077066004482200e-02 -3.8860037038845711e-03 0.0000000000000000e+00  9.9455932263512875e-03 -1.9066208212768182e-03 0.0000000000000000e+00  0.0000000000000000e+00 0.0000000000000000e+00 0.0000000000000000e+00  0.0000000000000000e+00 0.0000000000000000e+00 0.0000000000000000e+00  -1.1846440588464150e-02 -1.3843954787317806e-03 0.0000000000000000e+00  -2.3984972364890052e-02 -2.8087341537490203e-03 0.0000000000000000e+00  -3.6723031782513300e-02 -4.3123767781090049e-03 0.0000000000000000e+00  -5.0398102675084093e-02 -5.9333792123036364e-03 0.0000000000000000e+00  -5.0982307784055741e-02 -2.3673778542307022e-03 0.0000000000000000e+00  -5.0429633359829223e-02 1.1943604865313326e-03 0.0000000000000000e+00  -3.2709996934441779e-02 7.2205426594808850e-04 0.0000000000000000e+00  -1.5848097495248719e-02 4.1760855112519423e-04 0.0000000000000000e+00  6.0062291292097914e-04 2.7799642184092685e-04 0.0000000000000000e+00  1.7058369961812252e-02 2.9961806976298573e-04 0.0000000000000000e+00  3.3947097988578694e-02 4.7854609381373846e-04 0.0000000000000000e+00  5.1708883089192678e-02 8.0970538391576265e-04 0.0000000000000000e+00  5.2295671745955383e-02 -2.7589743760034540e-03 0.0000000000000000e+00  5.1729611478411777e-02 -6.3171785862542480e-03 0.0000000000000000e+00  3.7709638335519394e-02 -4.5852796064471844e-03 0.0000000000000000e+00  2.4636768221238888e-02 -2.9838969125644569e-03 0.0000000000000000e+00  1.2170447287495721e-02 -1.4699485438092357e-03 0.0000000000000000e+00  0.0000000000000000e+00 0.0000000000000000e+00 0.0000000000000000e+00  0.0000000000000000e+00 0.0000000000000000e+00 0.0000000000000000e+00  -1.2887910557122599e-02 -7.5977020360732425e-04 0.0000000000000000e+00  -2.6119997140871896e-02 -1.5311038749264369e-03 0.0000000000000000e+00  -4.0053668515381939e-02 -2.3244944488652925e-03 0.0000000000000000e+00  -5.5072732835166435e-02 -3.1483685341203720e-03 0.0000000000000000e+00  -5.5743313677774839e-02 -2.3532744364309797e-03 0.0000000000000000e+00  -5.5088516994137797e-02 -1.5632737799918582e-03 0.0000000000000000e+00  -3.5704630613310410e-02 -1.7786713017259328e-03 0.0000000000000000e+00  -1.7308091332978739e-02 -1.9385873720488785e-03 0.0000000000000000e+00  6.0673530766535561e-04 -2.0415668408348526e-03 0.0000000000000000e+00  1.8526867790870153e-02 -2.0895061231856870e-03 0.0000000000000000e+00  3.6939095351516460e-02 -2.0875347211386963e-03 0.0000000000000000e+00  5.6348338738066418e-02 -2.0443302902730057e-03 0.0000000000000000e+00  5.7016446590058500e-02 -2.8148956333444207e-03 0.0000000000000000e+00  5.6352331384242033e-02 -3.5783724919820022e-03 0.0000000000000000e+00  4.1006624400695017e-02 -2.6344106812386824e-03 0.0000000000000000e+00  2.6752030904355250e-02 -1.7317226859394365e-03 0.0000000000000000e+00  1.3202921476914169e-02 -8.5828028591623340e-04 0.0000000000000000e+00  -4.5560398478883012e-10 1.4385586714307410e-10 0.0000000000000000e+00  0.0000000000000000e+00 0.0000000000000000e+00 0.0000000000000000e+00  -1.2545079070386152e-02 -8.9033666939937914e-05 0.0000000000000000e+00  -2.5432518691688139e-02 -1.6526053209019883e-04 0.0000000000000000e+00  -3.9015681594545118e-02 -2.1461543726860439e-04 0.0000000000000000e+00  -5.3669457411485669e-02 -2.2051060682625856e-04 0.0000000000000000e+00  -5.4329567081567103e-02 -2.3674012905220121e-03 0.0000000000000000e+00  -5.3680192713006378e-02 -4.5203872191643246e-03 0.0000000000000000e+00  -3.4781600083021572e-02 -4.4998902702418847e-03 0.0000000000000000e+00  -1.6856199375061696e-02 -4.5209776371428851e-03 0.0000000000000000e+00  5.9152808591970843e-04 -4.5797497781448716e-03 0.0000000000000000e+00  1.8041736073569160e-02 -4.6768466454329754e-03 0.0000000000000000e+00  3.5974428872297425e-02 -4.8173679797940553e-03 0.0000000000000000e+00  5.4884693512607545e-02 -5.0109592573261445e-03 0.0000000000000000e+00  5.5531558666876174e-02 -2.8273677760222234e-03 0.0000000000000000e+00  5.4866193761083717e-02 -6.4003441697623429e-04 0.0000000000000000e+00  3.9911161831570105e-02 -5.1850193799789430e-04 0.0000000000000000e+00  2.6028447544431670e-02 -3.6275877898805996e-04 0.0000000000000000e+00  1.2842663734461324e-02 -1.8625550180729477e-04 0.0000000000000000e+00  0.0000000000000000e+00 0.0000000000000000e+00 0.0000000000000000e+00  0.0000000000000000e+00 0.0000000000000000e+00 0.0000000000000000e+00  -1.0824975049525653e-02 5.3049443237429604e-04 0.0000000000000000e+00  -2.1945585387466150e-02 1.0931040029470895e-03 0.0000000000000000e+00  -3.3667698454586614e-02 1.7213846786135482e-03 0.0000000000000000e+00  -4.6311076193000088e-02 2.4514706578020510e-03 0.0000000000000000e+00  -4.6883191240095545e-02 -2.4101822233047465e-03 0.0000000000000000e+00  -4.6325142739282177e-02 -7.2776664068999290e-03 0.0000000000000000e+00  -2.9996640356026002e-02 -7.0559402660014849e-03 0.0000000000000000e+00  -1.4507859706690480e-02 -6.9537371664869290e-03 0.0000000000000000e+00  5.6710517304850829e-04 -6.9657599398606817e-03 0.0000000000000000e+00  1.5642386688588611e-02 -7.0917060260315351e-03 0.0000000000000000e+00  3.1132011994513292e-02 -7.3363176167104910e-03 0.0000000000000000e+00  4.7461655014544503e-02 -7.7093441716317634e-03 0.0000000000000000e+00  4.8004348594800614e-02 -2.8092382404825140e-03 0.0000000000000000e+00  4.7418329494096363e-02 2.0926354893124272e-03 0.0000000000000000e+00  3.4499496963801057e-02 1.4604171385405585e-03 0.0000000000000000e+00  2.2501097810796858e-02 9.2304671003465364e-04 0.0000000000000000e+00  1.1102631674807189e-02 4.4662210394856225e-04 0.0000000000000000e+00  0.0000000000000000e+00 0.0000000000000000e+00 0.0000000000000000e+00  0.0000000000000000e+00 0.0000000000000000e+00 0.0000000000000000e+00  -7.9115630142032080e-03 1.0217318504077803e-03 0.0000000000000000e+00  -1.6038873388001001e-02 2.0893570884718644e-03 0.0000000000000000e+00  -2.4603966153015067e-02 3.2501596486970096e-03 0.0000000000000000e+00  -3.3839249624818331e-02 4.5542707464792578e-03 0.0000000000000000e+00  -3.4263395643366341e-02 -2.4793800965121344e-03 0.0000000000000000e+00  -3.3862095165089624e-02 -9.5177570391991508e-03 0.0000000000000000e+00  -2.1882313037938143e-02 -9.1364643612299092e-03 0.0000000000000000e+00  -1.0517725310373460e-02 -8.9323549268444952e-03 0.0000000000000000e+00  5.4267821562329493e-04 -8.8988806242405669e-03 0.0000000000000000e+00  1.1601777446698764e-02 -9.0347887823507035e-03 0.0000000000000000e+00  2.2962266770845233e-02 -9.3446267723831921e-03 0.0000000000000000e+00  3.4935131173835399e-02 -9.8376071417778273e-03 0.0000000000000000e+00  3.5311783179317650e-02 -2.7722681381425786e-03 0.0000000000000000e+00  3.4867426108719221e-02 4.2934792337285975e-03 0.0000000000000000e+00  2.5379197496903615e-02 3.0599803212518354e-03 0.0000000000000000e+00  1.6557700451053477e-02 1.9651603766540951e-03 0.0000000000000000e+00  8.1714929988871525e-03 9.6040659245656972e-04 0.0000000000000000e+00  0.0000000000000000e+00 0.0000000000000000e+00 0.0000000000000000e+00  0.0000000000000000e+00 0.0000000000000000e+00 0.0000000000000000e+00  -4.1247714548007311e-03 1.3295863230007353e-03 0.0000000000000000e+00  -8.3621207577825804e-03 2.7130113981413636e-03 0.0000000000000000e+00  -1.2828243782036392e-02 4.2055438009354759e-03 0.0000000000000000e+00  -1.7644323142419871e-02 5.8653725832345412e-03 0.0000000000000000e+00  -1.7878794812181090e-02 -2.5682328709331005e-03 0.0000000000000000e+00  -1.7677382000039120e-02 -1.1004472350726774e-02 0.0000000000000000e+00  -1.1336380128100763e-02 -1.0511214124396623e-02 0.0000000000000000e+00  -5.3240603514226196e-03 -1.0231191430601503e-02 0.0000000000000000e+00  5.2474416279259782e-04 -1.0156928419743477e-02 0.0000000000000000e+00  6.3711223207158479e-03 -1.0286423548438221e-02 0.0000000000000000e+00  1.2376024030415541e-02 -1.0623258422806946e-02 0.0000000000000000e+00  1.8704535038228349e-02 -1.1176538474581211e-02 0.0000000000000000e+00  1.8875686946763150e-02 -2.7243185959523464e-03 0.0000000000000000e+00  