<?xml version="1.0"?>
<VTKFile type="UnstructuredGrid"  version="0.1"  >
<UnstructuredGrid>
<Piece  NumberOfPoints="589" NumberOfCells="1080">
<Points>
<DataArray  type="Float64"  NumberOfComponents="3"  format="ascii">-9 0 0  -8 0 0  -7 0 0  -6 0 0  -5 0 0  -4 0 0  -3 0 0  -2 0 0  -1 0 0  0 0 0  1 0 0  2 0 0  3 0 0  4 0 0  5 0 0  6 0 0  7 0 0  8 0 0  9 0 0  -9 2 0  -8.000000561957313 1.999998724605285 0  -7.000001253739588 1.999997610802726 0  -6.000002328595426 1.999996790480182 0  -5.000004320307243 1.999996321198494 0  -4.000002349012846 1.999997185795031 0  -3.000000233583484 1.999998041688532 0  -1.999999178279633 1.999998853808305 0  -0.9999989632423789 1.999999472493168 0  7.598287049879831e-07 1.999999667343197 0  1.000000550130404 1.999999276855943 0  2.000000988496286 1.999998310478447 0  3.00000251985112 1.999997047286649 0  4.000005415197129 1.999995420499094 0  5.000009770190245 1.999993885532701 0  6.000006288717541 1.999994662786355 0  7.000003864341957 1.999996089822387 0  8.000001864548848 1.999997939118754 0  9 2 0  -9.000000000004983 4 0  -8.000000604615458 3.999996802852241 0  -7.000000975187888 3.99999404769245 0  -6.000000989763941 3.999992176800935 0  -5.00000071840064 3.999991630933937 0  -3.999997649604081 3.999991753078361 0  -2.999995499183979 3.999994159114089 0  -1.99999481809079 3.99999740858612 0  -0.9999954195705809 3.99999997592297 0  3.282900984598929e-06 4.0000008122529 0  1.00000202409228 3.999999416781155 0  2.000001592355885 3.999996212356114 0  3.000002802912042 3.999991799384904 0  4.000005919323695 3.999986944939051 0  5.000010259269734 3.999983885884061 0  6.000008349018168 3.999986726471414 0  7.000006030330252 3.999990490638498 0  8.000003188098175 3.999995031931274 0  9 4 0  -9 6 0  -8.000001583421684 5.999993113202749 0  -7.000002120626885 5.999986947561466 0  -6.000000794688567 5.999982263076386 0  -4.999997330224086 5.999979837368199 0  -3.999991189843872 5.999983136036739 0  -2.999988168313189 5.999990757859107 0  -1.999988707651873 5.999998921138248 0  -0.9999909571129728 6.000003638704533 0  6.522751731151062e-06 6.000004439654101 0  1.000004106159247 6.000002301916214 0  2.000002306807021 5.999996731394988 0  3.000001979373949 5.999987396152914 0  4.000004257459401 5.999977361148959 0  5.000010841235157 5.99997141400226 0  6.000012043069895 5.999975095919656 0  7.000010290461218 5.999981783055408 0  8.000005895058765 5.999990417743381 0  9 6 0  -9 8 0  -8.000006746961567 7.999986539186022 0  -7.00001071855158 7.999973923092752 0  -6.000009153645478 7.999963314547245 0  -4.999999504422834 7.99995665736509 0  -3.999988135250162 7.99997301631449 0  -2.999988646013564 7.999992681279301 0  -1.999991567761522 8.000003113958895 0  -0.9999913113372648 8.000005384833123 0  1.134651395137421e-05 8.000006202037103 0  1.000013079361929 8.000007181578871 0  2.000011891226218 8.000001262054781 0  3.000006219779824 7.99999121958096 0  4.000004604760302 7.999968411077981 0  5.000018286474632 7.999942993455682 0  6.000027554653007 7.999951445040566 0  7.000025121429598 7.999965285717809 0  8.000014600319767 7.999982013650464 0  9 8 0  -9 10 0  -8.000023010835925 9.999976587261845 0  -7.000041461093337 9.999952869943789 0  -6.000049848394187 9.999928563073651 0  -5.000040406770447 9.999903423244731 0  -4.000023230158861 9.999954040375854 0  -3.000023181795517 9.999998408218774 0  -2.000014726806804 9.999994296709142 0  -0.9999994000902149 9.999993025871172 0  1.287648176758581e-05 9.999992715415051 0  1.00002561194801 9.999992399829987 0  2.000043118814299 9.999990796654368 0  3.000057822983797 10.00000903271217 0  4.000055798293331 9.999951355398361 0  5.000081180597926 9.999876239732153 0  6.000089868026785 9.999906240948324 0  7.000072301382805 9.999937241203806 0  8.00003962063183 9.999968577112972 0  9 10 0  -9 12 0  -8.000057511965279 11.99996785558783 0  -7.000112447122748 11.99993417820802 0  -6.000161842522441 11.99989714904434 0  -5.00020196129215 11.99985426421495 0  -4.00019330531038 11.99994286693313 0  -3.000197975992327 12.00003032027236 0  -2.000113437393568 12.00002379192953 0  -1.000023759452961 12.00002227818691 0  6.685475479076951e-05 12.00002568162914 0  1.0001562379841 12.00003450772516 0  2.000241978514083 12.00005037315077 0  3.00031891234714 12.00007700131869 0  4.000308083596186 11.99993874417769 0  5.000317571539787 11.99979919345655 0  6.000257177712751 11.99985704843353 0  7.000179927442288 11.99990785887624 0  8.000092393930675 11.99995479569651 0  9 12 0  -9 14 0  -8.000102310379344 13.99996525782567 0  -7.000205576179109 13.99992889713343 0  -6.000310915679006 13.99988916280902 0  -5.000419878205687 13.99984403467371 0  -4.000420817431992 13.99994243878405 0  -3.000418357845861 14.00004191031656 0  -2.000232725205835 14.00003323278293 0  -1.00005186823563 14.00003186550058 0  0.0001257683699769674 14.00003696193109 0  1.000301463250295 14.00004846473158 0  2.000476111038789 14.00006690861549 0  3.000650006932135 14.00009320573618 0  4.000650531787047 13.9999322685017 0  5.000654417639979 13.99977192043493 0  6.00049186818933 13.99983604927135 0  7.000328659492197 13.99989398035786 0  8.000164591601063 13.99994794961528 0  9 14 0  -9 16 0  -8.000143274115421 15.99996913536635 0  -7.000290388671809 15.99993711331901 0  -6.000445461188916 15.99990275601412 0  -5.000613188841387 15.99986486557614 0  -4.000619536383522 15.9999408440752 0  -3.000610587759875 16.00001606030569 0  -2.000332949452111 16.00001344565867 0  -1.000067108191939 16.00001560907189 0  0.0001924585860976202 16.00002262764799 0  1.00045090905229 16.00003466902235 0  2.000713309740642 16.00005204364606 0  3.000984961205975 16.00007517834865 0  4.000992568002788 15.99992712669428 0  5.00098775578364 15.99977868455447 0  6.000729118348393 15.9998398525734 0  7.000480780189311 15.99989595724294 0  8.000238854340314 15.99994878349549 0  9 16 0  -9 18 0  -8.000168861781253 17.99997764278339 0  -7.000343346017413 17.99995467184036 0  -6.000529345672953 17.9999304840088 0  -5.000733300322373 17.99990450253462 0  -4.000743002275553 17.99993836227781 0  -3.000731018557441 17.99997187019907 0  -2.000386038996255 17.99997455708516 0  -1.00005727072676 17.99997994445173 0  0.0002636218094957495 17.99998821506857 0  1.000584590351904 17.99999955361184 0  2.000913575403427 18.00001415187459 0  3.00125888768758 18.00003219398045 0  4.001270768352775 17.99992292583957 0  5.001260930192678 17.99981359127321 0  6.000925080462812 17.99986391742677 0  7.000607192747365 17.99991105301416 0  8.000300795738987 17.99995605864405 0  9 18 0  -9 20 0  -8.000171947367768 19.99998860488398 0  -7.000350216197062 19.9999770983606 0  -6.000541366131023 19.99996538761987 0  -5.000752435149611 19.99995341794216 0  -4.000763440484271 19.99993571532968 0  -3.000750244464797 19.99991766247356 0  -2.000374345936625 19.99992487605266 0  -1.000015955916567 19.99993275675677 0  0.0003344876374697115 19.99994154049908 0  1.000686245244266 19.99995140937611 0  2.001048609644525 19.9999624948627 0  3.00143124623063 19.99997487295299 0  4.00144531128358 19.99992017300035 0  5.001432630190742 19.99986536126881 0  6.001049098735015 19.99990074770087 0  7.000687581144502 19.99993467040337 0  8.000340298020895 19.99996758989116 0  8.999999999971259 19.9999999999906 0  -9 22 0  -8.000149734889959 22.00000001257083 0  -7.000305535141741 22.00000034212168 0  -6.000473664333306 22.00000132775222 0  -5.000660779400773 22.00000335324027 0  -4.000671320794841 21.99993284316956 0  -3.000658769941695 21.99986199031752 0  -2.000292685234649 21.99987252911029 0  -0.9999428840709066 21.99988196023908 0  0.0004001034862964242 21.99989052913145 0  1.000745514376538 21.99989840267395 0  2.001102636469783 21.99990567141681 0  3.001481094880018 21.99991234874225 0  4.001495357954779 21.99991854896675 0  5.00148180574647 21.99992460047053 0  6.001084969082923 21.99994343307064 0  7.000710974314845 21.99996230035448 0  8.000351830735148 21.99998115766196 0  9 22 0  -9 24 0  -8.00010324665924 24.00001015275049 0  -7.000211508362424 24.00002096231201 0  -6.000329968834107 24.00003310953941 0  -5.00046409630102 24.00004732410928 0  -4.000472746763791 23.99992985340674 0  -3.000462326365287 23.99981206209551 0  -2.000145957846057 23.99982460924701 0  -0.9998425869187263 23.9998346096993 0  0.0004560319876185315 23.99984229661704 0  1.00075798054162 23.99984781291076 0  2.001071400529209 23.99985121154323 0  3.001404719677382 23.99985245562873 0  4.001417515825784 23.99991795211122 0  5.001404796132621 23.99998328183915 0  6.001029385443428 23.99998597859825 0  7.000674910127333 23.99998996919217 0  8.000334087400221 23.9999947842061 0  9 24 0  -9 26 0  -8.000036653067511 26.00001766645213 0  -7.000076677423396 26.00003623253889 0  -6.000123548196964 26.00005662347655 0  -5.000180941753502 26.00007981983739 0  -4.000186611141416 25.999926866855 0  -3.000179468012152 25.99977361711409 0  -1.999947308388139 25.99978686931243 0  -0.9997233112506038 25.99979650617962 0  0.0004986473289674745 25.99980273989306 0  1.000724602143578 25.99980568743543 0  2.000960649508415 25.99980536380374 0  3.001213112407145 25.99980168627605 0  4.0012231061254 25.99991825361245 0  5.001212587689039 26.00003463095834 0  6.000889978787274 26.00002334742526 0  7.000584186309606 26.00001433941426 0  8.000289380201236 26.00000680699783 0  9 26 0  -9 28 0  -7.999956551884869 28.00002158241939 0  -6.999914420559876 28.00004420463364 0  -5.999874973261922 28.00006893349114 0  -4.999839674354808 28.00009689008147 0  -3.999841636713862 27.99992402072161 0  -2.999838549419398 27.99975088204192 0  -1.999716075991596 27.99976358279094 0  -0.9995959207415323 27.99977200031971 0  0.0005252863089048672 27.99977632442248 0  1.00065089334577 27.99977663956922 0  2.000784316244776 27.99977292470771 0  3.000929129225299 27.99976505334446 0  4.000935343983586 27.99991932110263 0  5.000928050359385 28.00007337714347 0  6.000683228070813 28.00005161296237 0  7.000449468835791 28.00003280663393 
[...]
<PointData  Vectors="f_44-2"> 
<DataArray  type="Float64"  Name="f_44-2"  NumberOfComponents="3" format="ascii">0.0000000000000000e+00 0.0000000000000000e+00 0.0000000000000000e+00  0.0000000000000000e+00 0.0000000000000000e+00 0.0000000000000000e+00  0.0000000000000000e+00 0.0000000000000000e+00 0.0000000000000000e+00  0.0000000000000000e+00 0.0000000000000000e+00 0.0000000000000000e+00  0.0000000000000000e+00 0.0000000000000000e+00 0.0000000000000000e+00  0.0000000000000000e+00 0.0000000000000000e+00 0.0000000000000000e+00  0.0000000000000000e+00 0.0000000000000000e+00 0.0000000000000000e+00  0.0000000000000000e+00 0.0000000000000000e+00 0.0000000000000000e+00  0.0000000000000000e+00 0.0000000000000000e+00 0.0000000000000000e+00  0.0000000000000000e+00 0.0000000000000000e+00 0.0000000000000000e+00  0.0000000000000000e+00 0.0000000000000000e+00 0.0000000000000000e+00  0.0000000000000000e+00 0.0000000000000000e+00 0.0000000000000000e+00  0.0000000000000000e+00 0.0000000000000000e+00 0.0000000000000000e+00  0.0000000000000000e+00 0.0000000000000000e+00 0.0000000000000000e+00  0.0000000000000000e+00 0.0000000000000000e+00 0.0000000000000000e+00  0.0000000000000000e+00 0.0000000000000000e+00 0.0000000000000000e+00  0.0000000000000000e+00 0.0000000000000000e+00 0.0000000000000000e+00  0.0000000000000000e+00 0.0000000000000000e+00 0.0000000000000000e+00  0.0000000000000000e+00 0.0000000000000000e+00 0.0000000000000000e+00  0.0000000000000000e+00 0.0000000000000000e+00 0.0000000000000000e+00  8.8261990144526456e-05 1.3081773408890672e-04 0.0000000000000000e+00  1.8499090717598849e-04 2.4552814792474712e-04 0.0000000000000000e+00  3.1017999380169409e-04 3.3104008078593171e-04 0.0000000000000000e+00  5.0961125521907437e-04 3.8157926075081981e-04 0.0000000000000000e+00  3.0366129695730661e-04 2.8541599768051163e-04 0.0000000000000000e+00  9.1631922380422127e-05 1.9412539166619884e-04 0.0000000000000000e+00  -1.2303076045237277e-05 1.0840714522700986e-04 0.0000000000000000e+00  -3.0558660729967275e-05 4.0571505185210913e-05 0.0000000000000000e+00  4.7849724826446029e-06 1.0614243168997813e-05 0.0000000000000000e+00  4.4223156721860194e-05 3.0664630836908030e-05 0.0000000000000000e+00  3.9778714305113544e-05 9.5646500420742102e-05 0.0000000000000000e+00  -4.0646059275115242e-05 1.7508866141906446e-04 0.0000000000000000e+00  -2.0663138776100891e-04 2.5921145810850525e-04 0.0000000000000000e+00  -4.4613651515527068e-04 2.9067630579258100e-04 0.0000000000000000e+00  -2.6838989623965449e-04 2.7996477387304492e-04 0.0000000000000000e+00  -1.5936259023701974e-04 2.1649633904291735e-04 0.0000000000000000e+00  -7.6059829775034150e-05 1.1733838490739486e-04 0.0000000000000000e+00  0.0000000000000000e+00 0.0000000000000000e+00 0.0000000000000000e+00  0.0000000000000000e+00 0.0000000000000000e+00 0.0000000000000000e+00  1.4265612187629138e-04 3.2606294046509936e-04 0.0000000000000000e+00  2.5614147908715123e-04 6.0784893272905884e-04 0.0000000000000000e+00  3.2339097589251427e-04 8.0197047123839720e-04 0.0000000000000000e+00  3.4789932948503912e-04 8.6704590256153884e-04 0.0000000000000000e+00  4.8310318850826848e-05 8.2228933089645686e-04 0.0000000000000000e+00  -1.5306475262330608e-04 5.6524873165150757e-04 0.0000000000000000e+00  -2.0655126372299374e-04 2.3048217219193601e-04 0.0000000000000000e+00  -1.3171474454751165e-04 -3.9034839051703123e-05 0.0000000000000000e+00  1.3001800110024419e-05 -1.4823444327077115e-04 0.0000000000000000e+00  1.6097739993167710e-04 -6.4940481575334513e-05 0.0000000000000000e+00  2.4690298320044848e-04 1.6156319457944003e-04 0.0000000000000000e+00  2.0551166703370542e-04 4.6788195706171906e-04 0.0000000000000000e+00  1.7029361508729299e-05 7.7445251091713446e-04 0.0000000000000000e+00  -2.7099256849773582e-04 8.7236987920257935e-04 0.0000000000000000e+00  -2.6190081642819379e-04 7.7095475359964950e-04 0.0000000000000000e+00  -2.1582539499660286e-04 5.7574724755747315e-04 0.0000000000000000e+00  -1.2314612182415328e-04 3.0739497885936472e-04 0.0000000000000000e+00  0.0000000000000000e+00 0.0000000000000000e+00 0.0000000000000000e+00  0.0000000000000000e+00 0.0000000000000000e+00 0.0000000000000000e+00  3.1373177351905874e-04 6.9840657487705638e-04 0.0000000000000000e+00  5.1223583075446803e-04 1.3208187702063994e-03 0.0000000000000000e+00  5.0756642514889795e-04 1.7890766295530821e-03 0.0000000000000000e+00  2.7452685620512398e-04 2.0282764126162427e-03 0.0000000000000000e+00  -3.0931277955319940e-04 1.6468934625584943e-03 0.0000000000000000e+00  -5.7512218700336533e-04 8.5047526295399902e-04 0.0000000000000000e+00  -4.7081711968164003e-04 1.5659196059691645e-05 0.0000000000000000e+00  -2.1037391968298976e-04 -4.4817989074780960e-04 0.0000000000000000e+00  5.2704526643164966e-05 -5.4179435854658723e-04 0.0000000000000000e+00  2.8863474792003647e-04 -3.9291487036793290e-04 0.0000000000000000e+00  4.6790932730602513e-04 1.9568525317144212e-05 0.0000000000000000e+00  5.3466225891814862e-04 7.1629845165158926e-04 0.0000000000000000e+00  3.9713549655424153e-04 1.4374616945782713e-03 0.0000000000000000e+00  -9.8015344983616655e-05 1.7913865685850897e-03 0.0000000000000000e+00  -4.0334738035048009e-04 1.6371039904668802e-03 0.0000000000000000e+00  -4.5870011081780381e-04 1.2275645178952874e-03 0.0000000000000000e+00  -2.9209408808303654e-04 6.5360988582912965e-04 0.0000000000000000e+00  0.0000000000000000e+00 0.0000000000000000e+00 0.0000000000000000e+00  0.0000000000000000e+00 0.0000000000000000e+00 0.0000000000000000e+00  9.4568923292188034e-04 1.3746843747685018e-03 0.0000000000000000e+00  1.5810079736204164e-03 2.6503582763789473e-03 0.0000000000000000e+00  1.6052111380202622e-03 3.6923661755471778e-03 0.0000000000000000e+00  7.6106742719409708e-04 4.2786434323485532e-03 0.0000000000000000e+00  -3.6854545442020211e-04 2.5177871988409841e-03 0.0000000000000000e+00  -1.5919875535649642e-04 4.4815923141881109e-04 0.0000000000000000e+00  2.6569925618392904e-04 -5.5892449280177392e-04 0.0000000000000000e+00  3.0226972602132718e-04 -6.7164423941207523e-04 0.0000000000000000e+00  4.9876816615170587e-05 -7.0403928675117809e-04 0.0000000000000000e+00  -1.3983549858127663e-04 -8.0498295882488200e-04 0.0000000000000000e+00  -6.4355991991196085e-05 -3.8805173947990357e-04 0.0000000000000000e+00  4.2250480697141621e-04 3.2210585692901862e-04 0.0000000000000000e+00  5.8563639847375069e-04 2.0846862943284293e-03 0.0000000000000000e+00  -5.1893723153482562e-04 4.0733090169656301e-03 0.0000000000000000e+00  -1.5446750369322736e-03 3.5242032925913470e-03 0.0000000000000000e+00  -1.5893633981715449e-03 2.5369804364049984e-03 0.0000000000000000e+00  -9.6295170390109169e-04 1.3183969902976819e-03 0.0000000000000000e+00  0.0000000000000000e+00 0.0000000000000000e+00 0.0000000000000000e+00  0.0000000000000000e+00 0.0000000000000000e+00 0.0000000000000000e+00  2.8189219344732256e-03 2.4468339002513212e-03 0.0000000000000000e+00  5.0940043906371676e-03 4.9142979843934155e-03 0.0000000000000000e+00  6.1760075839960580e-03 7.4181406546308930e-03 0.0000000000000000e+00  5.1611502303618613e-03 9.9628770101660158e-03 0.0000000000000000e+00  3.3673390940262798e-03 4.2710573968756252e-03 0.0000000000000000e+00  3.6611789457529366e-03 -6.2462081968341087e-04 0.0000000000000000e+00  2.9365698803841800e-03 2.2388027975339542e-04 0.0000000000000000e+00  1.3629851434287595e-03 4.9672505971637827e-04 0.0000000000000000e+00  2.0541515129023221e-04 5.6333996210469956e-04 0.0000000000000000e+00  -9.4163391299827886e-04 5.5781719898306164e-04 0.0000000000000000e+00  -2.4666718396451686e-03 5.8619382221953252e-04 0.0000000000000000e+00  -3.8115411329902537e-03 -1.1650701133281908e-03 0.0000000000000000e+00  -3.6483886910424783e-03 3.4437302449610088e-03 0.0000000000000000e+00  -5.6731073558336518e-03 9.5224106118332943e-03 0.0000000000000000e+00  -6.6096467597694976e-03 7.1633269767682230e-03 0.0000000000000000e+00  -5.4040654570937860e-03 4.7715844947635649e-03 0.0000000000000000e+00  -2.9797247334873117e-03 2.3822731881508706e-03 0.0000000000000000e+00  0.0000000000000000e+00 0.0000000000000000e+00 0.0000000000000000e+00  0.0000000000000000e+00 0.0000000000000000e+00 0.0000000000000000e+00  6.8665842978217458e-03 3.4361142439252876e-03 0.0000000000000000e+00  1.3377796383019645e-02 7.0321405122267195e-03 0.0000000000000000e+00  1.9131171109683851e-02 1.0979278543679022e-02 0.0000000000000000e+00  2.3628318769188965e-02 1.5544267252253715e-02 0.0000000000000000e+00  2.2704218897551660e-02 5.1586796692620401e-03 0.0000000000000000e+00  2.3528978535410174e-02 -5.1265350529648961e-03 0.0000000000000000e+00  1.6197358469411356e-02 -3.8779319061105094e-03 0.0000000000000000e+00  8.0321951511015469e-03 -3.1972600505370376e-03 0.0000000000000000e+00  -4.5072268782802064e-04 -3.0564522061162112e-03 0.0000000000000000e+00  -9.0216952435909631e-03 -3.4766688536941727e-03 0.0000000000000000e+00  -1.7487615307080449e-02 -4.5818342929402015e-03 0.0000000000000000e+00  -2.5467239401390760e-02 -6.6828585442906775e-03 0.0000000000000000e+00  -2.4600947612813673e-02 4.3721303222447865e-03 0.0000000000000000e+00  -2.5187653609252170e-02 1.5515522599761645e-02 0.0000000000000000e+00  -2.0240274915623763e-02 1.0932029505973358e-02 0.0000000000000000e+00  -1.4092368580935129e-02 6.9958109486507637e-03 0.0000000000000000e+00  -7.2171448096318728e-03 3.4175882892644336e-03 0.0000000000000000e+00  0.0000000000000000e+00 0.0000000000000000e+00 0.0000000000000000e+00  0.0000000000000000e+00 0.0000000000000000e+00 0.0000000000000000e+00  1.2333871830658885e-02 3.7853667630683287e-03 0.0000000000000000e+00  2.4689951822472720e-02 7.7448798848485196e-03 0.0000000000000000e+00  3.7106130046327949e-02 1.2068056779901437e-02 0.0000000000000000e+00  4.9663299442522076e-02 1.6974487546920516e-02 0.0000000000000000e+00  4.9781640315685931e-02 4.8246995393118695e-03 0.0000000000000000e+00  4.9850042915666026e-02 -7.4797889477994546e-03 0.0000000000000000e+00  3.2795862622191384e-02 -5.7087449840759518e-03 0.0000000000000000e+00  1.5973571416363398e-02 -4.7324438878379380e-03 0.0000000000000000e+00  -7.5595185862964117e-04 -4.4330409760154274e-03 0.0000000000000000e+00  -1.7526018281957597e-02 -4.7718958744196547e-03 0.0000000000000000e+00  -3.4460675512823370e-02 -5.7677732477759199e-03 0.0000000000000000e+00  -5.1657336353044522e-02 -7.4750762812858303e-03 0.0000000000000000e+00  -5.1804836216170762e-02 4.7873419181312330e-03 0.0000000000000000e+00  -5.1885387363044821e-02 1.6972523853875290e-02 0.0000000000000000e+00  -3.8666720760634994e-02 1.2109549744096370e-02 0.0000000000000000e+00  -2.5686209536344498e-02 7.7867906595656556e-03 0.0000000000000000e+00  -1.2819888575923090e-02 3.8096627579768273e-03 0.0000000000000000e+00  0.0000000000000000e+00 0.0000000000000000e+00 0.0000000000000000e+00  0.0000000000000000e+00 0.0000000000000000e+00 0.0000000000000000e+00  1.7709847444345009e-02 3.4377939809765341e-03 0.0000000000000000e+00  3.5757606210831523e-02 7.0024446074329599e-03 0.0000000000000000e+00  5.4510469306623101e-02 1.0823028885783872e-02 0.0000000000000000e+00  7.4395465464541927e-02 1.5030727631666574e-02 0.0000000000000000e+00  7.5092241184746042e-02 4.6482189132607422e-03 0.0000000000000000e+00  7.4421484402433985e-02 -5.6785313928831944e-03 0.0000000000000000e+00  4.8473651995247356e-02 -4.3628375293623652e-03 0.0000000000000000e+00  2.3546426189671073e-02 -3.5618844679148891e-03 0.0000000000000000e+00  -9.0002023783418677e-04 -3.2583261637055974e-03 0.0000000000000000e+00  -2.5376548133724128e-02 -3.4408386487794246e-03 0.0000000000000000e+00  -5.0394439326043053e-02 -4.1098308500733755e-03 0.0000000000000000e+00  -7.6497514052391399e-02 -5.2748835180391144e-03 0.0000000000000000e+00  -7.7253905784744115e-02 5.0920513170191048e-03 0.0000000000000000e+00  -7.6606176671746309e-02 1.5467755094572339e-02 0.0000000000000000e+00  -5.6129818290360491e-02 1.1124728687878220e-02 0.0000000000000000e+00  -3.6816696096363823e-02 7.1942014473588842e-03 0.0000000000000000e+00  -1.8232891310460325e-02 3.5313127566467674e-03 0.0000000000000000e+00  0.0000000000000000e+00 0.0000000000000000e+00 0.0000000000000000e+00  0.0000000000000000e+00 0.0000000000000000e+00 0.0000000000000000e+00  2.1730621455882882e-02 2.5827421871139214e-03 0.0000000000000000e+00  4.4000971127925566e-02 5.2360225838092083e-03 0.0000000000000000e+00  6.7378711606816882e-02 8.0291209131332555e-03 0.0000000000000000e+00  9.2487748248209933e-02 1.1028172523102781e-02 0.0000000000000000e+00  9.3548560269172090e-02 4.6026073238347991e-03 0.0000000000000000e+00  9.2520433568097082e-02 -1.8137956356379535e-03 0.0000000000000000e+00  6.0078116566087962e-02 -9.5943695913478671e-04 0.0000000000000000e+00  2.9199996078746602e-02 -4.0377865765934450e-04 0.0000000000000000e+00  -9.2444208126057274e-04 -1.4137204547033663e-04 0.0000000000000000e+00  -3.1066815919731483e-02 -1.6590459341195573e-04 0.0000000000000000e+00  -6.1997911595372324e-02 -4.6964951971191217e-04 0.0000000000000000e+00  -9.4524208285716269e-02 -1.0422258645724275e-03 0.0000000000000000e+00  -9.5614190801802751e-02 5.3265407891241248e-03 0.0000000000000000e+00  -9.4584076811272691e-02 1.1677014127944571e-02 0.0000000000000000e+00  -6.8927548219777465e-02 8.4889276105898307e-03 0.0000000000000000e+00  -4.5021980860481155e-02 5.5304393601082122e-03 0.0000000000000000e+00  -2.2237596665586754e-02 2.7264129409281554e-03 0.0000000000000000e+00  0.0000000000000000e+00 0.0000000000000000e+00 0.0000000000000000e+00  0.0000000000000000e+00 0.0000000000000000e+00 0.0000000000000000e+00  2.3590138659187632e-02 1.4455787285252071e-03 0.0000000000000000e+00  4.7810020099537283e-02 2.9102546511759119e-03 0.0000000000000000e+00  7.3313562262512594e-02 4.4110470887250199e-03 0.0000000000000000e+00  1.0080310670966015e-01 5.9607263878314149e-03 0.0000000000000000e+00  1.0201675589863231e-01 4.6027111845087024e-03 0.0000000000000000e+00  1.0081641883171392e-01 3.2534985882867180e-03 0.0000000000000000e+00  6.5436470088736876e-02 3.6364899205429046e-03 0.0000000000000000e+00  3.1843318950664209e-02 3.9270275563584147e-03 0.0000000000000000e+00  -8.7761540818810776e-04 4.1218594773040022e-03 0.0000000000000000e+00  -3.3608281837700954e-02 4.2243473703114688e-03 0.0000000000000000e+00  -6.7230141125199150e-02 4.2442855666798198e-03 0.0000000000000000e+00  -1.0265664435614956e-01 4.1984821141357355e-03 0.0000000000000000e+00  -1.0388049461468024e-01 5.4500651767658169e-03 0.0000000000000000e+00  -1.0267817688494175e-01 6.6880439581567643e-03 0.0000000000000000e+00  -7.4708528990150500e-02 4.9344397228770886e-03 0.0000000000000000e+00  -4.8734455837542330e-02 3.2486793237989026e-03 0.0000000000000000e+00  -2.4050667799191121e-02 1.6116459658229003e-03 0.0000000000000000e+00  2.2732982590769956e-10 0.0000000000000000e+00 0.0000000000000000e+00  0.0000000000000000e+00 0.0000000000000000e+00 0.0000000000000000e+00  2.2928459412470688e-02 2.3205144387392198e-04 0.0000000000000000e+00  4.6479601101527594e-02 4.3998671450499739e-04 0.0000000000000000e+00  7.1296212072724935e-02 5.9734116518201763e-04 0.0000000000000000e+00  9.8059810554543506e-02 6.7289050019190297e-04 0.0000000000000000e+00  9.9247393530176961e-02 4.6555665510096805e-03 0.0000000000000000e+00  9.8064817705318580e-02 8.6465179192627261e-03 0.0000000000000000e+00  6.3658711794031514e-02 8.6017538714299874e-03 0.0000000000000000e+00  3.1003056419533655e-02 8.6400805370719907e-03 0.0000000000000000e+00  -7.9232196079681994e-04 8.7538895525466429e-03 0.0000000000000000e+00  -3.2590942830895808e-02 8.9442304221290011e-03 0.0000000000000000e+00  -6.5255991828198523e-02 9.2206719088677030e-03 0.0000000000000000e+00  -9.9676693905757979e-02 9.6014653098898933e-03 0.0000000000000000e+00  -1.0085412882819754e-01 5.4951454806000588e-03 0.0000000000000000e+00  -9.9658622806286665e-02 1.3793182842470756e-03 0.0000000000000000e+00  -7.2494852067250176e-02 1.1086532077600236e-03 0.0000000000000000e+00  -4.7278326854969251e-02 7.7211298468222956e-04 0.0000000000000000e+00  -2.3327565884886655e-02 3.9549621544275235e-04 0.0000000000000000e+00  0.0000000000000000e+00 0.0000000000000000e+00 0.0000000000000000e+00  0.0000000000000000e+00 0.0000000000000000e+00 0.0000000000000000e+00  1.9773616226354259e-02 -8.8505601060751308e-04 0.0000000000000000e+00  4.0082164238368093e-02 -1.8280362131195094e-03 0.0000000000000000e+00  6.1482303971909041e-02 -2.8892510789221225e-03 0.0000000000000000e+00  8.4552655692883089e-02 -4.1341211049163475e-03 0.0000000000000000e+00  8.5572804723746565e-02 4.7501365805911822e-03 0.0000000000000000e+00  8.4556324221780707e-02 1.3640554788409425e-02 0.0000000000000000e+00  5.4890235164678551e-02 1.3235139616719219e-02 0.0000000000000000e+00  2.6726694682766051e-02 1.3051632388417360e-02 0.0000000000000000e+00  -6.9455341136966651e-04 1.3080195201243787e-02 0.0000000000000000e+00  -2.8113968697061061e-02 1.3320113408315321e-02 0.0000000000000000e+00  -5.6271596232901511e-02 1.3780080197697591e-02 0.0000000000000000e+00  -8.5927075667575736e-02 1.4478171103300500e-02 0.0000000000000000e+00  -8.6915158384348962e-02 5.4753871006096777e-03 0.0000000000000000e+00  -8.5873265351445738e-02 -3.5346650743849103e-03 0.0000000000000000e+00  -6.2480758146546439e-02 -2.4534366657400926e-03 0.0000000000000000e+00  -4.0752189332517744e-02 -1.5439912123746773e-03 0.0000000000000000e+00  -2.0108519266496119e-02 -7.4499309343543788e-04 0.0000000000000000e+00  0.0000000000000000e+00 0.0000000000000000e+00 0.0000000000000000e+00  0.0000000000000000e+00 0.0000000000000000e+00 0.0000000000000000e+00  1.4466088405982730e-02 -1.7705695568902395e-03 0.0000000000000000e+00  2.9323994293165363e-02 -3.6229555843727162e-03 0.0000000000000000e+00  4.4976154402527072e-02 -5.6413830473445751e-03 0.0000000000000000e+00  6.1844198616457083e-02 -7.9170528699014572e-03 0.0000000000000000e+00  6.2590263070217700e-02 4.8745230453257722e-03 0.0000000000000000e+00  6.1852452533146203e-02 1.7670030136652581e-02 0.0000000000000000e+00  4.0121541264878005e-02 1.6981602252138892e-02 0.0000000000000000e+00  1.9486119490530363e-02 1.6615959970675352e-02 0.0000000000000000e+00  -6.0461784881051818e-04 1.6562114002188735e-02 0.0000000000000000e+00  -2.0690185829153759e-02 1.6816828475910608e-02 0.0000000000000000e+00  -4.1308059712094392e-02 1.7388024909194659e-02 0.0000000000000000e+00  -6.3009012556242694e-02 1.8293023938877998e-02 0.0000000000000000e+00  -6.3701295522565426e-02 5.4058065430821261e-03 0.0000000000000000e+00  -6.2923329039467457e-02 -7.4862707621944297e-03 0.0000000000000000e+00  -4.5799808699364696e-02 -5.3282165921784280e-03 0.0000000000000000e+00  -2.9879768618641254e-02 -3.4181992760116985e-03 0.0000000000000000e+00  -1.4745812642450538e-02 -1.6694082395817859e-03 0.0000000000000000e+00  0.0000000000000000e+00 0.0000000000000000e+00 0.0000000000000000e+00  0.0000000000000000e+00 0.0000000000000000e+00 0.0000000000000000e+00  7.5877321067633697e-03 -2.3289286652601257e-03 0.0000000000000000e+00  1.5382395946374755e-02 -4.7538600286852447e-03 0.0000000000000000e+00  2.3596223818115419e-02 -7.3733033265224171e-03 0.0000000000000000e+00  3.2451351277214026e-02 -1.0290818746645294e-02 0.0000000000000000e+00  3.2852151692943810e-02 5.0155457626210971e-03 0.0000000000000000e+00  3.2468710391836374e-02 2.0323256763372065e-02 0.0000000000000000e+00  2.0981318031291239e-02 1.9437864547052416e-02 0.0000000000000000e+00  1.0076331471004422e-02 1.8937633416381185e-02 0.0000000000000000e+00  -5.3763610111896528e-04 1.8809027788235042e-02 0.0000000000000000e+00  -1.1143575622937753e-02 1.9048457975930116e-02 0.0000000000000000e+00  -2.2024216911355587e-02 1.9662203515631131e-02 0.0000000000000000e+00  -3.3468754642861150e-02 2.0666348757783972e-02 0.0000000000000000e+00  -3.3795783831364799e-02 5.3004061857449486e-03 0.0000000000000000e+00  -3.3356866240769660e-02 -1.0068404371539687e-02 0.0000000000000000e+00  -2.4294006582827560e-02 -7.210727874025