<?xml version="1.0"?>
<VTKFile type="UnstructuredGrid"  version="0.1"  >
<UnstructuredGrid>
<Piece  NumberOfPoints="589" NumberOfCells="1080">
<Points>
<DataArray  type="Float64"  NumberOfComponents="3"  format="ascii">-9 0 0  -8 0 0  -7 0 0  -6 0 0  -5 0 0  -4 0 0  -3 0 0  -2 0 0  -1 0 0  0 0 0  1 0 0  2 0 0  3 0 0  4 0 0  5 0 0  6 0 0  7 0 0  8 0 0  9 0 0  -9 2 0  -8.000004002418088 1.999993519304709 0  -7.000008448451186 1.999987858483599 0  -6.000014363319863 1.999983686231606 0  -5.000024074283084 1.99998130321702 0  -4.000013931148038 1.999985914244128 0  -3.000003454941283 1.999990415624393 0  -1.99999837024334 1.99999469010634 0  -0.9999975869031149 1.999998053709306 0  5.353297461636056e-07 1.999999468289146 0  0.9999985521150331 1.999998279812709 0  1.999998977651847 1.999994707901814 0  3.000003541167062 1.999990276378364 0  4.000012877968133 1.999985339492182 0  5.000026556208674 1.999982695011371 0  6.00001633972163 1.999983771888455 0  7.000009828254453 1.999987622910043 0  8.000004714423273 1.999993337896033 0  9 2 0  -9.000000000004983 4 0  -8.000006230332732 3.999983759358261 0  -7.000011021585493 3.999969762870587 0  -6.000013542233099 3.999960215612275 0  -5.000013996714756 3.999957233209091 0  -3.999998954699264 3.999959175804109 0  -2.999988834632926 3.999971992075809 0  -1.999986200560941 3.99998878929099 0  -0.9999900684128874 4.000002278952405 0  2.533189286086436e-06 4.00000755521271 0  0.9999950373558183 4.000002821630557 0  1.999990870431493 3.999990513070721 0  2.999993485365765 3.999973803811809 0  4.000003954060964 3.999956680273619 0  5.000019709291391 3.999949854078574 0  6.000017859256289 3.999956447420225 0  7.000014065849973 3.999967790299642 0  8.000007831063726 3.999982887663373 0  9 4 0  -9 6 0  -8.000014214265034 5.999965024039291 0  -7.000022677133186 5.999933871498599 0  -6.000020985792161 5.999910486705419 0  -5.000007846345503 5.999898688177215 0  -3.999978197674968 5.99991752362549 0  -2.999964596088898 5.999957501182083 0  -1.999969622197343 5.999999559324513 0  -0.999982685321514 6.000023077012911 0  3.902466934388416e-06 6.000027663937301 0  0.9999917072930452 6.000019541333114 0  1.999982415665491 5.999997353909601 0  2.999979145715947 5.99995991793377 0  3.999986750527142 5.999920818924076 0  5.00001314442824 5.999900668832044 0  6.000027152288333 5.999910125980288 0  7.000028068570378 5.999932941139319 0  8.000017332220736 5.999964378873694 0  9 6 0  -9 8 0  -8.000045200262891 7.99993100253503 0  -7.000074947311496 7.999866915408373 0  -6.000074220360412 7.999814419023028 0  -5.000030038585223 7.999784539936592 0  -3.999972892471662 7.999872592926615 0  -2.999982290417932 7.999976442166799 0  -2.000002806057975 8.00002769231515 0  -1.000004259213597 8.000034339637377 0  8.507998375239355e-06 8.000036396288351 0  1.000017810966823 8.000041535021458 0  2.000013430940551 8.000018849986425 0  2.999987804837856 7.999980301616008 0  3.999979254160642 7.999886263025487 0  5.000037431494422 7.999780366073251 0  6.000088807008864 7.999810381696082 0  7.000088676302608 7.999863608824265 0  8.000053212023557 7.999929141992305 0  9 8 0  -9 10 0  -8.00013797028747 9.999877363034772 0  -7.000249082133023 9.99975363232298 0  -6.000301243592792 9.99962794201678 0  -5.000249694663328 9.999499957828814 0  -4.000159607194118 9.999782949220542 0  -3.000172263228493 10.00002694717447 0  -2.000134786640519 9.99998753909842 0  -1.000055598115652 9.999974914772549 0  3.485502069298639e-06 9.999971825092674 0  1.000062555553761 9.999971798995494 0  2.000141746703608 9.999969248248776 0  3.000210703760643 10.00005922733973 0  4.000201603838233 9.999814834100349 0  5.000308914622018 9.999493054230248 0  6.000356419693935 9.999617843714226 0  7.000290575615387 9.999745081817002 0  8.000160054520061 9.999872624570436 0  9 10 0  -9 12 0  -8.000338041388018 11.99982814791209 0  -7.000658801413659 11.99964827082162 0  -6.000942687987481 11.99945078481414 0  -5.001165348614331 11.99922235169511 0  -4.001119157324287 11.99973598318472 0  -3.001158241818821 12.00024431833292 0  -2.00077640817786 12.00018623362141 0  -1.000354936361197 12.00015645498803 0  8.070870423399303e-05 12.00015372714322 0  1.000518867094438 12.00017939218798 0  2.000949179829739 12.00024009750639 0  3.001350894017484 12.00035219650594 0  4.001304275446445 11.99976488848648 0  5.001337223306106 11.99917261378879 0  6.001077094699347 11.99941563343315 0  7.000751014777279 11.99962541134206 0  8.000384927160958 11.99981682314053 0  9 12 0  -9 14 0  -8.000606965818294 13.99981108816238 0  -7.001215578393754 13.99961344082439 0  -6.001828289448048 13.99939755603102 0  -5.002449679546216 13.99915243112872 0  -4.002455706701023 13.99974931299175 0  -3.002456934015782 14.000353590657 0  -2.001577098113434 14.00027180671136 0  -1.000711175472309 14.000229883519 0  0.0001479817301083136 14.00022214488376 0  1.001007019938245 14.00024693574645 0  2.001871844278671 14.0003055344487 0  3.002746694699648 14.00040104884102 0  4.002752652291274 13.99974151949754 0  5.002759356361132 13.9990857226886 0  6.002060836846166 13.99934663282036 0  7.001371050532601 13.99957935121727 0  8.000684885843038 13.99979404187977 0  9 14 0  -9 16 0  -8.000868934129372 15.99982900683487 0  -7.001755352026524 15.99965163826225 0  -6.002678191465813 15.99946140483663 0  -5.003659399255683 15.99925169792409 0  -4.0036944903492 15.99975513354701 0  -3.003658827196447 16.00025559336992 0  -2.002323110733792 16.00019824507589 0  -1.001040760461065 16.00016682411816 0  0.0002157872171927719 16.00016067352483 0  1.001472544327723 16.00017947637206 0  2.002755453235756 16.00022353950529 0  3.004092032216743 16.00029366211832 0  4.004130022197129 15.99972401441128 0  5.004098405873735 15.99915368075106 0  6.003008392058137 15.9993905683763 0  7.00197583563838 15.99960552068091 0  8.000979269976655 15.99980625391928 0  9 16 0  -9 18 0  -8.001060578186829 17.99987243661549 0  -7.002148743508308 17.99974133327688 0  -6.003293494459069 17.99960321044436 0  -5.00452665974563 17.99945473062243 0  -4.004579997893957 17.99975497256691 0  -3.004526408428454 18.00005454448918 0  -2.002856923572725 18.00002123329769 0  -1.001267708755392 18.00000295250128 0  0.000282770018671734 17.99999965622715 0  1.00183405939006 18.00001123991675 0  2.003425652861703 18.00003756210953 0  3.00509891191348 18.0000783674519 0  4.005154994395023 17.99971053959994 0  5.00510282599553 17.99934344569231 0  6.003724674014199 17.99952235617754 0  7.002435745335307 17.99968863531495 0  8.001203944975297 17.99984644084236 0  9 18 0  -9 20 0  -8.001141515145585 19.99993002038514 0  -7.002315077480343 19.99985911657981 0  -6.003553958002295 19.9997864672026 0  -5.004893880999802 19.99971145673673 0  -4.004954827835763 19.99975298357599 0  -3.004892741557281 19.99979381905263 0  -2.003071100163386 19.99978429244368 0  -1.001340383025599 19.99977934368029 0  0.0003465139514484189 19.9997793195797 0  1.002035031376761 19.99978424515746 0  2.003770621897784 19.99979383573357 0  3.005600436145995 19.99980746823658 0  4.005664317276357 19.99970323988599 0  5.00560230080197 19.99959947509133 0  6.004082569007626 19.99970470270024 0  7.002666215253227 19.99980566158434 0  8.001316707130318 19.99990360849285 0  8.999999999971807 19.99999999999949 0  -9 22 0  -8.001093928265755 21.99999129529221 0  -7.002219421599532 21.99998388305195 0  -6.003409046167289 21.99997917372887 0  -5.004697367627194 21.99997881645317 0  -4.004756895650861 21.99974861885087 0  -3.004696063445241 21.9995177118654 0  -2.002923060428283 21.99952910508684 0  -1.001238463507086 21.99953610816602 0  0.0004037969467086314 21.99953925745893 0  1.002048441349787 21.99953865981261 0  2.003740224542343 21.99953400114055 0  3.005525322316227 21.99952453873197 0  4.005587527463059 21.99970029416295 0  5.005524880985933 21.999876264563 0  6.004025514211285 21.99990411927307 0  7.002628433524734 21.99993472737364 0  8.001297846745851 21.99996698115068 0  9 22 0  -9 24 0  -8.000919729050684 24.00004740289427 0  -7.001866496853641 24.00009784160194 0  -6.002868107017523 24.0001544755368 0  -5.003953887340077 24.0002207167419 0  -4.004004817319701 23.99974220563364 0  -3.003952931958842 23.99926306195195 0  -2.002422849542066 23.9992914191419 0  -1.000967862946119 23.99930823326132 0  0.0004515913801232199 23.99931412936836 0  1.001874061305132 23.99930926222876 0  2.003338139837214 23.99929331851233 0  3.004883526720779 23.99926551368749 0  4.004936420564951 23.99970082806046 0  5.004880804918735 24.00013621739027 0  6.003557945179442 24.00009250895964 0  7.002323858538101 24.00005719973365 0  8.001147653786221 24.00002728264544 0  9 24 0  -9 26 0  -8.000636971541295 26.00009137717105 0  -7.001293382429895 26.00018702855943 0  -6.001989208093885 26.00029135553133 0  -5.002745431737687 26.00040901938785 0  -4.002782291241991 25.99973419981524 0  -3.00274520127284 25.99905885947344 0  -2.001623671896253 25.99909977190988 0  -1.000555771931128 25.99912389649528 0  0.0004873878608516704 25.99913192023542 0  1.001534021964217 25.9991240349673 0  2.002612393751439 25.99909994007074 0  3.003751542070293 25.9990588400983 0  4.003789359658269 25.99970395423725 0  5.003746661214637 26.00034901857057 0  6.002733940474394 26.00024729479793 0  7.001786943518096 26.00015810141597 0  8.000882875695346 26.00007704736054 0  9 26 0  -9 28 0  -8.000275974391579 28.00011826550675 0  -7.000561734153837 28.00024152353754 0  -6.000867355117187 28.00037489664518 0  -5.001203402751464 28.00052376995817 0  -4.001222484314216 27.99972526541281 0  -3.001204088145797 27.99892639890895 0  -2.000611366850787 27.99897513064147 0  -1.000045350582542 27.99900381939616 0  0.0005093496404073904 27.99901320024861 0  1.001067792047663 27.99900349862579 0  2.001645084944254 27.99897443102322 0  3.002256768250987 27.99892520414397 0  4.002275693604338 27.99970895325293 0  5.002250064854946 28.00049257374801 0  6.001645677680921 28.00035196073187 0  7.001077460305802 28.00022645192527 0
[...]
<PointData  Vectors="f_44-2"> 
<DataArray  type="Float64"  Name="f_44-2"  NumberOfComponents="3" format="ascii">0.0000000000000000e+00 0.0000000000000000e+00 0.0000000000000000e+00  0.0000000000000000e+00 0.0000000000000000e+00 0.0000000000000000e+00  0.0000000000000000e+00 0.0000000000000000e+00 0.0000000000000000e+00  0.0000000000000000e+00 0.0000000000000000e+00 0.0000000000000000e+00  0.0000000000000000e+00 0.0000000000000000e+00 0.0000000000000000e+00  0.0000000000000000e+00 0.0000000000000000e+00 0.0000000000000000e+00  0.0000000000000000e+00 0.0000000000000000e+00 0.0000000000000000e+00  0.0000000000000000e+00 0.0000000000000000e+00 0.0000000000000000e+00  0.0000000000000000e+00 0.0000000000000000e+00 0.0000000000000000e+00  0.0000000000000000e+00 0.0000000000000000e+00 0.0000000000000000e+00  0.0000000000000000e+00 0.0000000000000000e+00 0.0000000000000000e+00  0.0000000000000000e+00 0.0000000000000000e+00 0.0000000000000000e+00  0.0000000000000000e+00 0.0000000000000000e+00 0.0000000000000000e+00  0.0000000000000000e+00 0.0000000000000000e+00 0.0000000000000000e+00  0.0000000000000000e+00 0.0000000000000000e+00 0.0000000000000000e+00  0.0000000000000000e+00 0.0000000000000000e+00 0.0000000000000000e+00  0.0000000000000000e+00 0.0000000000000000e+00 0.0000000000000000e+00  0.0000000000000000e+00 0.0000000000000000e+00 0.0000000000000000e+00  0.0000000000000000e+00 0.0000000000000000e+00 0.0000000000000000e+00  0.0000000000000000e+00 0.0000000000000000e+00 0.0000000000000000e+00  6.8220251741436068e-05 1.0492220832640045e-04 0.0000000000000000e+00  1.4235722959589966e-04 1.9628426767845063e-04 0.0000000000000000e+00  2.3755590260468755e-04 2.6300264412094682e-04 0.0000000000000000e+00  3.8946446137324534e-04 2.9995702198528740e-04 0.0000000000000000e+00  2.2513101251179907e-04 2.2574014247571373e-04 0.0000000000000000e+00  5.7914773573593090e-05 1.5202234097498794e-04 0.0000000000000000e+00  -2.1485145834050875e-05 8.1356647936991724e-05 0.0000000000000000e+00  -3.0251033013834334e-05 2.5247386275515020e-05 0.0000000000000000e+00  5.3257980669320347e-06 1.6702911487953122e-07 0.0000000000000000e+00  4.4579011338430345e-05 1.6196361215461095e-05 0.0000000000000000e+00  4.8164037775034262e-05 6.8950345657273958e-05 0.0000000000000000e+00  -9.8873113655586841e-06 1.3279289704729006e-04 0.0000000000000000e+00  -1.3658490639005790e-04 1.9865747628708066e-04 0.0000000000000000e+00  -3.2042561294989575e-04 2.1828606976411291e-04 0.0000000000000000e+00  -1.9089118254473042e-04 2.1456438884963653e-04 0.0000000000000000e+00  -1.1315504986436283e-04 1.6764695083448333e-04 0.0000000000000000e+00  -5.4127629085982781e-05 9.1332374013346090e-05 0.0000000000000000e+00  0.0000000000000000e+00 0.0000000000000000e+00 0.0000000000000000e+00  0.0000000000000000e+00 0.0000000000000000e+00 0.0000000000000000e+00  1.1277202048326542e-04 2.6407725308599269e-04 0.0000000000000000e+00  2.0046832481718891e-04 4.9113754215180695e-04 0.0000000000000000e+00  2.4827158795510506e-04 6.4505813286254573e-04 0.0000000000000000e+00  2.5880744401003707e-04 6.9162310236602878e-04 0.0000000000000000e+00  1.6658091239522697e-05 6.5413302141036772e-04 0.0000000000000000e+00  -1.4317354570687137e-04 4.4118720748485834e-04 0.0000000000000000e+00  -1.7952082575819613e-04 1.6428553279031354e-04 0.0000000000000000e+00  -1.0877239466588787e-04 -5.9216477834385941e-05 0.0000000000000000e+00  2.0009662043266560e-05 -1.5037103672572419e-04 0.0000000000000000e+00  1.5166697593101052e-04 -8.2861426172566548e-05 0.0000000000000000e+00  2.3241307370554950e-04 1.0188437593953778e-04 0.0000000000000000e+00  2.0844901079117870e-04 3.5112336153984576e-04 0.0000000000000000e+00  6.3139734939156956e-05 5.9907343068900268e-04 0.0000000000000000e+00  -1.6570929479476002e-04 6.7225361221366099e-04 0.0000000000000000e+00  -1.7458762695212639e-04 6.0190617936268500e-04 0.0000000000000000e+00  -1.5147304695215414e-04 4.5287346388173669e-04 0.0000000000000000e+00  -8.8652557335326467e-05 2.4272664200958126e-04 0.0000000000000000e+00  0.0000000000000000e+00 0.0000000000000000e+00 0.0000000000000000e+00  0.0000000000000000e+00 0.0000000000000000e+00 0.0000000000000000e+00  2.5761690292054487e-04 5.7126093108950137e-04 0.0000000000000000e+00  4.1815071447928531e-04 1.0785130969058999e-03 0.0000000000000000e+00  4.0805620610146718e-04 1.4565004402000432e-03 0.0000000000000000e+00  2.0654803675459666e-04 1.6429177208841911e-03 0.0000000000000000e+00  -2.7177201735365648e-04 1.3235184702686819e-03 0.0000000000000000e+00  -4.8491727426879254e-04 6.6009896272181830e-04 0.0000000000000000e+00  -3.8865618869157270e-04 -3.4461904102028006e-05 0.0000000000000000e+00  -1.6302083335593013e-04 -4.1910876396806769e-04 0.0000000000000000e+00  6.3669048302535016e-05 -4.9647236337408448e-04 0.0000000000000000e+00  2.6730847993215056e-04 -3.7503030101301989e-04 0.0000000000000000e+00  4.2435664767121541e-04 -3.7145001775911094e-05 0.0000000000000000e+00  4.8860996707755127e-04 5.3484415908738034e-04 0.0000000000000000e+00  3.8401520443732598e-04 1.1259825537856449e-03 0.0000000000000000e+00  -1.6527185955338387e-05 1.4135782972367606e-03 0.0000000000000000e+00  -2.8625498241635991e-04 1.3039541175138712e-03 0.0000000000000000e+00  -3.4860320699770344e-04 9.8251612478421758e-04 0.0000000000000000e+00  -2.2648910030889557e-04 5.2440191732142419e-04 0.0000000000000000e+00  0.0000000000000000e+00 0.0000000000000000e+00 0.0000000000000000e+00  0.0000000000000000e+00 0.0000000000000000e+00 0.0000000000000000e+00  7.8970846602135591e-04 1.1334395263922054e-03 0.0000000000000000e+00  1.3182754345455157e-03 2.1827502416977033e-03 0.0000000000000000e+00  1.3334511847456288e-03 3.0340263532450387e-03 0.0000000000000000e+00  6.2182229556762675e-04 3.4999686801388701e-03 0.0000000000000000e+00  -3.1460965214098253e-04 2.0271981480217342e-03 0.0000000000000000e+00  -1.2556750770582946e-04 2.9943665531131962e-04 0.0000000000000000e+00  2.4100116811263326e-04 -5.3555444655358885e-04 0.0000000000000000e+00  2.7989733684640242e-04 -6.2153060733414079e-04 0.0000000000000000e+00  7.5031706672214947e-05 -6.4551831056455908e-04 0.0000000000000000e+00  -7.7983420511709060e-05 -7.3179401349562228e-04 0.0000000000000000e+00  -1.0611555860756918e-05 -3.9152114026533806e-04 0.0000000000000000e+00  4.0116257841574167e-04 1.8621464341182344e-04 0.0000000000000000e+00  5.4852161815312694e-04 1.6386768865423601e-03 0.0000000000000000e+00  -3.5654531211202150e-04 3.2818328977089126e-03 0.0000000000000000e+00  -1.2272961521753649e-03 2.8529783668542232e-03 0.0000000000000000e+00  -1.2834155760463996e-03 2.0586497484359301e-03 0.0000000000000000e+00  -7.8168188959606576e-04 1.0710662607028556e-03 0.0000000000000000e+00  0.0000000000000000e+00 0.0000000000000000e+00 0.0000000000000000e+00  0.0000000000000000e+00 0.0000000000000000e+00 0.0000000000000000e+00  2.3654380314020946e-03 2.0313859631716550e-03 0.0000000000000000e+00  4.2701141470723198e-03 4.0780851061476006e-03 0.0000000000000000e+00  5.1651055383250561e-03 6.1509726900458531e-03 0.0000000000000000e+00  4.2869998858507561e-03 8.2503199261453036e-03 0.0000000000000000e+00  2.7917759524951321e-03 3.4659533014586518e-03 0.0000000000000000e+00  3.0659427843304074e-03 -6.3978786720826500e-04 0.0000000000000000e+00  2.4781348487552296e-03 9.8926444335564661e-05 0.0000000000000000e+00  1.1698747984462750e-03 3.3660412122986973e-04 0.0000000000000000e+00  2.1412993889094120e-04 3.9490536096743858e-04 0.0000000000000000e+00  -7.3102224123611063e-04 3.8775171621463793e-04 0.0000000000000000e+00  -1.9904739072312541e-03 4.0332127735635397e-04 0.0000000000000000e+00  -3.0960971096255260e-03 -1.0773661485579344e-03 0.0000000000000000e+00  -2.9436145577327335e-03 2.7382184291531611e-03 0.0000000000000000e+00  -4.6160043788819934e-03 7.7860911519406842e-03 0.0000000000000000e+00  -5.4248156173889875e-03 5.8623151342299300e-03 0.0000000000000000e+00  -4.4483434023743513e-03 3.9069175040861810e-03 0.0000000000000000e+00  -2.4558186725148002e-03 1.9511007946590424e-03 0.0000000000000000e+00  0.0000000000000000e+00 0.0000000000000000e+00 0.0000000000000000e+00  0.0000000000000000e+00 0.0000000000000000e+00 0.0000000000000000e+00  5.7799103941877841e-03 2.8664819237863796e-03 0.0000000000000000e+00  1.1253652888979412e-02 5.8659681974476312e-03 0.0000000000000000e+00  1.6075390984638397e-02 9.1576053480528184e-03 0.0000000000000000e+00  1.9815980408332663e-02 1.2963472577205020e-02 0.0000000000000000e+00  1.9047197865559556e-02 4.1949072594848480e-03 0.0000000000000000e+00  1.9769237881779086e-02 -4.4873777452106006e-03 0.0000000000000000e+00  1.3686679522411401e-02 -3.4146463431438782e-03 0.0000000000000000e+00  6.8857963656437735e-03 -2.8234071826806939e-03 0.0000000000000000e+00  -1.9236742862710371e-04 -2.6895097356401838e-03 0.0000000000000000e+00  -7.3506754015060811e-03 -3.0296638795499851e-03 0.0000000000000000e+00  -1.4424847302095723e-02 -3.9467340896247941e-03 0.0000000000000000e+00  -2.1094270823027280e-02 -5.6995757129445768e-03 0.0000000000000000e+00  -2.0350803614735877e-02 3.4966112924340403e-03 0.0000000000000000e+00  -2.0823764539846124e-02 1.2769486113477351e-02 0.0000000000000000e+00  -1.6753319466051984e-02 8.9944656129188495e-03 0.0000000000000000e+00  -1.1672399298061541e-02 5.7546102855235582e-03 0.0000000000000000e+00  -5.9800273641475417e-03 2.8108772830504900e-03 0.0000000000000000e+00  0.0000000000000000e+00 0.0000000000000000e+00 0.0000000000000000e+00  0.0000000000000000e+00 0.0000000000000000e+00 0.0000000000000000e+00  1.0410168809028505e-02 3.1677531974149461e-03 0.0000000000000000e+00  2.0830968961082698e-02 6.4821173888877700e-03 0.0000000000000000e+00  3.1285889084100391e-02 1.0102742041880631e-02 0.0000000000000000e+00  4.1832577392000386e-02 1.4214832489037408e-02 0.0000000000000000e+00  4.1942597049158960e-02 3.9096542711637428e-03 0.0000000000000000e+00  4.2034774228783239e-02 -6.5260820461905721e-03 0.0000000000000000e+00  2.7785317018463991e-02 -5.0055790881477734e-03 0.0000000000000000e+00  1.3717991155166392e-02 -4.1569959119355047e-03 0.0000000000000000e+00  -2.8083994236632100e-04 -3.8805013242976158e-03 0.0000000000000000e+00  -1.4320619377059024e-02 -4.1427740400080317e-03 0.0000000000000000e+00  -2.8503929927157303e-02 -4.9586464460859708e-03 0.0000000000000000e+00  -4.2911962436610475e-02 -6.3727896738992396e-03 0.0000000000000000e+00  -4.3013753512475383e-02 3.8435366734163993e-03 0.0000000000000000e+00  -4.3062236122832179e-02 1.3995288195171752e-02 0.0000000000000000e+00  -3.2101401989584902e-02 9.9786438245096573e-03 0.0000000000000000e+00  -2.1329174024584261e-02 6.4134335156845928e-03 0.0000000000000000e+00  -1.0646691880684912e-02 3.1368281497252269e-03 0.0000000000000000e+00  0.0000000000000000e+00 0.0000000000000000e+00 0.0000000000000000e+00  0.0000000000000000e+00 0.0000000000000000e+00 0.0000000000000000e+00  1.4985780725109187e-02 2.8813762628583299e-03 0.0000000000000000e+00  3.0251817461972565e-02 5.8706701390131375e-03 0.0000000000000000e+00  4.6097105241369625e-02 9.0781665249156842e-03 0.0000000000000000e+00  6.2874307605806992e-02 1.2616095034002989e-02 0.0000000000000000e+00  6.3471837662203615e-02 3.7535137119273547e-03 0.0000000000000000e+00  6.2934228295915204e-02 -5.0646884015717727e-03 0.0000000000000000e+00  4.1187043075556679e-02 -3.9187166792600259e-03 0.0000000000000000e+00  2.0289822206561850e-02 -3.2102163245922716e-03 0.0000000000000000e+00  -2.0653087713927358e-04 -2.9236670380937036e-03 0.0000000000000000e+00  -2.0731842659291330e-02 -3.0486479470678198e-03 0.0000000000000000e+00  -4.1716294271478743e-02 -3.5846531284585586e-03 0.0000000000000000e+00  -6.3617845087660677e-02 -4.5389185418297220e-03 0.0000000000000000e+00  -6.4234492871988777e-02 4.0967406828113654e-03 0.0000000000000000e+00  -6.3675662966639138e-02 1.2737275898723950e-02 0.0000000000000000e+00  -4.6657175581282379e-02 9.1520312415921054e-03 0.0000000000000000e+00  -3.0603970978296473e-02 5.9143023215084195e-03 0.0000000000000000e+00  -1.5156428483143669e-02 2.9018033852707720e-03 0.0000000000000000e+00  0.0000000000000000e+00 0.0000000000000000e+00 0.0000000000000000e+00  0.0000000000000000e+00 0.0000000000000000e+00 0.0000000000000000e+00  1.8438928682560536e-02 2.1622400321358571e-03 0.0000000000000000e+00  3.7328824778874226e-02 4.3854894477102294e-03 0.0000000000000000e+00  5.7143718557525015e-02 6.7297864993475353e-03 0.0000000000000000e+00  7.8404653853306527e-02 9.2528923632746955e-03 0.0000000000000000e+00  7.9308955511975185e-02 3.6976027262010007e-03 0.0000000000000000e+00  7.8459563606572316e-02 -1.8522305885399955e-03 0.0000000000000000e+00  5.1207168938041933e-02 -1.0901724518807697e-03 0.0000000000000000e+00  2.5277050258798908e-02 -5.8417361515469661e-04 0.0000000000000000e+00  -1.6096236585204142e-05 -3.2916880394189213e-04 0.0000000000000000e+00  -2.5324539686257617e-02 -3.1871665468041852e-04 0.0000000000000000e+00  -5.1299295885610580e-02 -5.4558299104888984e-04 0.0000000000000000e+00  -7.8622457243810284e-02 -1.0003705609541915e-03 0.0000000000000000e+00  -7.9526666416944058e-02 4.2821049702653369e-03 0.0000000000000000e+00  -7.8650318512513001e-02 9.5470755089695856e-03 0.0000000000000000e+00  -5.7308269310718592e-02 6.9320679974032486e-03 0.0000000000000000e+00  -3.7428755038910057e-02 4.5122234701750656e-03 0.0000000000000000e+00  -1.8486031353270534e-02 2.2232430372221366e-03 0.0000000000000000e+00  0.0000000000000000e+00 0.0000000000000000e+00 0.0000000000000000e+00  0.0000000000000000e+00 0.0000000000000000e+00 0.0000000000000000e+00  2.0076349572655330e-02 1.1992512875134010e-03 0.0000000000000000e+00  4.0682309631796566e-02 2.4157783388201650e-03 0.0000000000000000e+00  6.2367720986943910e-02 3.6651312896372116e-03 0.0000000000000000e+00  8.5723022344246155e-02 4.9594947682312131e-03 0.0000000000000000e+00  8.6757964256320305e-02 3.6719902644529196e-03 0.0000000000000000e+00  8.5754266594229647e-02 2.3911087946567656e-03 0.0000000000000000e+00  5.5987591023129571e-02 2.7564684419731813e-03 0.0000000000000000e+00  2.7740261174318489e-02 3.0391631101503087e-03 0.0000000000000000e+00  2.3606757707845730e-04 3.2372211096507271e-03 0.0000000000000000e+00  -2.7272554789419534e-02 3.3543575388324410e-03 0.0000000000000000e+00  -5.5532758310004489e-02 3.3994626630434927e-03 0.0000000000000000e+00  -8.5319280146459106e-02 3.3872146554742768e-03 0.0000000000000000e+00  -8.6341239873836850e-02 4.3664594509424419e-03 0.0000000000000000e+00  -8.5321668061178135e-02 5.3334693675280397e-03 0.0000000000000000e+00  -6.2064296858560672e-02 3.9304816648421193e-03 0.0000000000000000e+00  -4.0478677676892123e-02 2.5855122181364016e-03 0.0000000000000000e+00  -1.9974105171259283e-02 1.2819568933813571e-03 0.0000000000000000e+00  -1.0747068717734602e-09 0.0000000000000000e+00 0.0000000000000000e+00  0.0000000000000000e+00 0.0000000000000000e+00 0.0000000000000000e+00  1.9584302681948575e-02 1.6735759503730548e-04 0.0000000000000000e+00  3.9694473360468843e-02 3.1476546969413152e-04 0.0000000000000000e+00  6.0872733654709334e-02 4.2031000289914980e-04 0.0000000000000000e+00  8.3694938997161017e-02 4.5804835397527326e-04 0.0000000000000000e+00  8.4712006997569533e-02 3.6904156145775671e-03 0.0000000000000000e+00  8.3718972096803679e-02 6.9308115150387905e-03 0.0000000000000000e+00  5.4737822498786233e-02 6.9316684840946561e-03 0.0000000000000000e+00  2.7252608151229010e-02 6.9982720644892540e-03 0.0000000000000000e+00  5.0575958293236887e-04 7.1249954497710375e-03 0.0000000000000000e+00  -2.6236734459583248e-02 7.3134088825684302e-03 0.0000000000000000e+00  -5.3708511228620658e-02 7.5721234447990405e-03 0.0000000000000000e+00  -8.2665858191808023e-02 7.9169414685004314e-03 0.0000000000000000e+00  -8.3649169474138141e-02 4.3840246439215092e-03 0.0000000000000000e+00  -8.2634238333293669e-02 8.4406486275256877e-04 0.0000000000000000e+00  -6.0089993444179160e-02 6.9701633888033477e-04 0.0000000000000000e+00  -3.9178297517178558e-02 4.9319477597019584e-04 0.0000000000000000e+00  -1.9327870154017365e-02 2.5475443741410341e-04 0.0000000000000000e+00  0.0000000000000000e+00 0.0000000000000000e+00 0.0000000000000000e+00  0.0000000000000000e+00 0.0000000000000000e+00 0.0000000000000000e+00  1.6977332566466406e-02 -7.8478814870504992e-04 0.0000000000000000e+00  3.4410071347420225e-02 -1.6188509350379225e-03 0.0000000000000000e+00  5.2761668712338936e-02 -2.5532954092489452e-03 0.0000000000000000e+00  7.2530333799965124e-02 -3.6439098955178407e-03 0.0000000000000000e+00  7.3411680057194992e-02 3.7526794566315595e-03 0.0000000000000000e+00  7.2559765195497117e-02 1.1156773530699401e-02 0.0000000000000000e+00  4.7550367670350750e-02 1.0845676546532918e-02 0.0000000000000000e+00  2.3832501805625149e-02 1.0718584705490961e-02 0.0000000000000000e+00  7.5680860197803695e-04 1.0767700099450207e-02 0.0000000000000000e+00  -2.2307561456742571e-02 1.0993062497090337e-02 0.0000000000000000e+00  -4.5991046100378206e-02 1.1402424809890163e-02 0.0000000000000000e+00  -7.0941449931745892e-02 1.2011387872783193e-02 0.0000000000000000e+00  -7.1760910508183479e-02 4.3548013975341525e-03 0.0000000000000000e+00  -7.0872365759089270e-02 -3.3057454807993584e-03 0.0000000000000000e+00  -5.1543995737514899e-02 -2.3090376484576963e-03 0.0000000000000000e+00  -3.3608139481624437e-02 -1.4603944418639760e-03 0.0000000000000000e+00  -1.6580177310900054e-02 -7.0692452724805093e-04 0.0000000000000000e+00  0.0000000000000000e+00 0.0000000000000000e+00 0.0000000000000000e+00  0.0000000000000000e+00 0.0000000000000000e+00 0.0000000000000000e+00  1.2539955176498124e-02 -1.5401099375013457e-03 0.0000000000000000e+00  2.5411480946894899e-02 -3.1501923034987409e-03 0.0000000000000000e+00  3.8955175776873907e-02 -4.9023111537984075e-03 0.0000000000000000e+00  5.3529321616318626e-02 -6.8730562785279557e-03 0.0000000000000000e+00  5.4184435471712748e-02 3.8547371554857462e-03 0.0000000000000000e+00  5.3572214066071225e-02 1.4588290697610824e-02 0.0000000000000000e+00  3.5243673749772601e-02 1.4027846783388158e-02 0.0000000000000000e+00  1.7863881859379472e-02 1.3738231817342909e-02 0.0000000000000000e+00  9.6063265096940165e-04 1.3709621054204018e-02 0.0000000000000000e+00  -1.5926173606315423e-02 1.3941019647253014e-02 0.0000000000000000e+00  -3.3255144176023828e-02 1.4438802299681350e-02 0.0000000000000000e+00  -5.1498660104699792e-02 1.5217998343105398e-02 0.0000000000000000e+00  -5.2061778999680772e-02 4.2971265209048306e-03 0.0000000000000000e+00  -5.1392644328498119e-02 -6.6255619667623163e-03 0.0000000000000000e+00  -3.7386877875521453e-02 -4.7227563226675436e-03 0.0000000000000000e+00  -2.4381538967263534e-02 -3.0333337547280462e-03 0.0000000000000000e+00  -1.2029579601268180e-02 -1.4825343747869979e-03 0.0000000000000000e+00  0.0000000000000000e+00 0.0000000000000000e+00 0.0000000000000000e+00  0.0000000000000000e+00 0.0000000000000000e+00 0.0000000000000000e+00  6.7609011044535454e-03 -2.0158521250126242e-03 0.0000000000000000e+00  1.3696247436277275e-02 -4.1136203890814946e-03 0.0000000000000000e+00  2.0985882373211948e-02 -6.3773793879493765e-03 0.0000000000000000e+00  2.8817461303849955e-02 -8.8955235180349628e-03 0.0000000000000000e+00  2.9183749742652053e-02 3.9859945339211422e-03 0.0000000000000000e+00  2.8875808882402459e-02 1.6870090858905472e-02 0.0000000000000000e+00  1.9185520380692662e-02 1.6131360332376075e-02 0.0000000000000000e+00  1.0008964856311151e-02 1.5717383438151468e-02 0.0000000000000000e+00  1.0958305954101219e-03 1.5617110591260480e-02 0.0000000000000000e+00  -7.7971963956288319e-03 1.5827705816634299e-02 0.0000000000000000e+00  -1.6912941761450848e-02 1.6354672443004876e-02 0.0000000000000000e+00  -2.6500149301429830e-02 1.7211923719561373e-02 0.0000000000000000e+00  -2.6748642665241670e-02 4.2233411411497493e-03 0.0000000000000000e+00  -2.6364276613730083e-02 -8.7663470038513401e-03 0.0000000000000000e+00  -1.9185931573060068e-02 -6.28315648939502