<?xml version="1.0"?>
<VTKFile type="UnstructuredGrid"  version="0.1"  >
<UnstructuredGrid>
<Piece  NumberOfPoints="589" NumberOfCells="1080">
<Points>
<DataArray  type="Float64"  NumberOfComponents="3"  format="ascii">-9 0 0  -8 0 0  -7 0 0  -6 0 0  -5 0 0  -4 0 0  -3 0 0  -2 0 0  -1 0 0  0 0 0  1 0 0  2 0 0  3 0 0  4 0 0  5 0 0  6 0 0  7 0 0  8 0 0  9 0 0  -9 2 0  -8.000008257164374 1.999987520709229 0  -7.000017334862687 1.999976579815422 0  -6.000029157012065 1.999968426485816 0  -5.000048116655374 1.999963608408399 0  -4.00002849545421 1.999972791438251 0  -3.000008287688104 1.999981506980864 0  -1.999998408135877 1.999989687538742 0  -0.9999967130718972 1.999996149441054 0  -1.235687053718047e-07 1.999998972147129 0  0.9999961176192917 1.999996980215587 0  1.999996636484322 1.999990641329817 0  3.000004551169658 1.999982857626567 0  4.000020851318967 1.999974493174253 0  5.000044477740714 1.999970968467137 0  6.000026908937754 1.999972262004679 0  7.000016028523125 1.999978637011383 0  8.000007658900088 1.999988444592288 0  9 2 0  -9 4 0  -8.000013231989904 3.999968888719975 0  -7.000023691967315 3.999942010035825 0  -6.000029763942494 3.99992351232248 0  -5.000031794642241 3.999917356378828 0  -4.000003190212785 3.999921576588376 0  -2.999983956783414 3.9999461162813 0  -1.999978858897043 3.999978090026215 0  -0.9999860287254039 4.000003805860673 0  1.237150767535134e-07 4.000014143193896 0  0.9999859924203115 4.000005956626881 0  1.999977872763285 3.999983931371784 0  2.999982069644733 3.999954106683678 0  4.000000503422203 3.999924058359005 0  5.000028552626591 3.999913805137879 0  6.000027064091963 3.999924198745089 0  7.000022013618427 3.999943544713446 0  8.000012474512381 3.999969898899169 0  9 4 0  -9 6 0  -8.000029293765353 5.999933330718384 0  -7.000047601007243 5.999873920417174 0  -6.000046535984604 5.999829234977689 0  -5.000023686917067 5.999806442291149 0  -3.999967848042638 5.999842772681598 0  -2.999942383872726 5.999918813389214 0  -1.999952243399927 5.999998549823981 0  -0.9999770693225584 6.000042905857473 0  -2.22772772973194e-06 6.000051786470732 0  0.999975143985858 6.000037309566839 0  1.999957935123211 5.999997326413662 0  2.999951599164099 5.999929780442478 0  3.999965002330275 5.999859685708189 0  5.00001288940747 5.999824827192746 0  6.000041466965911 5.999840329830151 0  7.000045952036137 5.999880423916945 0  8.000029029967255 5.999936369709878 0  9 6 0  -9 8 0  -8.000089288992264 7.999868757066879 0  -7.000148991440224 7.999746953063834 0  -6.000150439700789 7.999647408094251 0  -5.00006906856977 7.999591257732984 0  -3.999961174993057 7.999759264613098 0  -2.999980764673335 7.999956706368814 0  -2.000020974287836 8.000053019196734 0  -1.000024242522182 8.000064133916371 0  -3.687151856375122e-08 8.00006739551705 0  1.000018048982465 8.000077103598764 0  2.000010622934952 8.000036623518149 0  2.999963636550458 7.999967702318282 0  3.9999478295699 7.999797159731584 0  5.000054324193548 7.999604703382891 0  6.000152224265705 7.999658125256004 0  7.00015550107209 7.999753919399365 0  8.000094001577459 7.99987212003135 0  9 8 0  -9 10 0  -8.000267528812328 9.99976650959486 0  -7.000483288965039 9.999531075872385 0  -6.000585516684027 9.999292212011319 0  -5.000488140960594 9.999049524043896 0  -4.000317321262215 9.999591581785296 0  -3.000344764203821 10.00005768626344 0  -2.000275004136759 9.99997780071663 0  -1.000124651256135 9.999952155696775 0  -1.370179055107921e-05 9.999945885524147 0  1.000096465309185 9.999946320990254 0  2.000243224197961 9.999943213117847 0  3.000372382634757 10.00011159307726 0  4.00035615130086 9.999666404593004 0  5.000551424269393 9.999078949429084 0  6.000641254564474 9.999306601678162 0  7.000524016270568 9.999537884072824 0  8.000288890402777 9.999769213377748 0  9 10 0  -9 12 0  -8.000652373158614 11.9996722099918 0  -7.001270948486119 11.99932921375316 0  -6.001817523859647 11.99895282541093 0  -5.002244666543557 11.99851769164025 0  -4.002157656933198 11.99950520383792 0  -3.002236248674259 12.00048276056715 0  -2.001529888025431 12.00036508560232 0  -1.000745483045859 12.00030179786435 0  6.820516278130036e-05 12.0002901856151 0  1.000889458710922 12.00033234766019 0  2.001699853106087 12.00044032507991 0  3.002462658757126 12.0006441998251 0  4.002377671077889 11.9995756225029 0  5.002434069964449 11.99849810734576 0  6.001957474392519 11.99894094971304 0  7.001363538441479 11.99932190204363 0  8.000698504606845 11.99966862682329 0  9 12 0  -9 14 0  -8.00117143970904 13.99963893244092 0  -7.002345056162841 13.99926126129635 0  -6.003524607029992 13.99884891901008 0  -5.00471785258156 13.9983809657077 0  -4.004730619303186 13.99953382995717 0  -3.004737360841791 14.00070125368726 0  -2.003098780642427 14.000535186423 0  -1.001484240433953 14.00044506063805 0  0.0001201007345947456 14.00041968678542 0  1.001727344133308 14.00045548135717 0  2.003349582394284 14.00055437929228 0  3.004996283871954 14.00072173903813 0  4.005008610268765 13.99953321861467 0  5.005016110124074 13.9983519857649 0  6.00374067195989 13.99882363857214 0  7.002486055267447 13.99924329723723 0  8.001241130209042 13.99962970271207 0  9 14 0  -9 16 0  -8.001680478684944 15.99967220017504 0  -7.003393250190182 15.99933227095 0  -6.005173407601634 15.99896787441091 0  -5.007061721277403 15.9985664463705 0  -4.007129451406161 15.99954788651834 0  -3.007065523863032 16.00052406772691 0  -2.004574947434429 16.00040258989607 0  -1.002183695003836 16.00033017753509 0  0.0001604679996836274 16.00030529408131 0  1.002506884142922 16.00032697062768 0  2.004904885261504 16.00039535536187 0  3.007406945828034 16.00051146264718 0  4.007478222035125 15.99950194779621 0  5.007415714837599 15.99849163806211 0  6.00543655189005 15.99891483738637 0  7.003567360122522 15.99929807853285 0  8.001767115616715 15.9996554081873 0  9 16 0  -9 18 0  -8.002058949565425 17.99975401956101 0  -7.004169410418637 17.99950128756937 0  -6.006385571320562 17.99923517845752 0  -5.008766934781536 17.99894934086698 0  -4.008868905686557 17.99955081532862 0  -3.008770552401577 18.00015146889067 0  -2.005658220548328 18.00007460908078 0  -1.002696842375423 18.00002609106687 0  0.0001917655187173137 18.00000556414406 0  1.003081991089431 18.00001251082176 0  2.006048116692234 18.0000462882594 0  3.009167964222011 18.00010598075336 0  4.009271955901282 17.99947872589204 0  5.009172828059679 17.99885326542535 0  6.006687939074054 17.99916621176629 0  7.004369978970044 17.99945671699589 0  8.002158927847258 17.99973214246101 0  9 18 0  -9 20 0  -8.002230087534036 19.99986282354048 0  -7.004520218828302 19.9997238466013 0  -6.006932725856276 19.99958147265312 0  -5.009534513668425 19.99943450280803 0  -4.009650703386013 19.99955061083366 0  -3.009535845947346 19.99966578269803 0  -2.006142651711895 19.99963390720617 0  -1.00292126088723 19.99961070900877 0  0.000216513400156064 19.99959660694708 0  1.003355669314287 19.99959137377212 0  2.006581175076974 19.99959415910923 0  3.009981140848979 19.99960343369809 0  4.010098465433218 19.99946730693661 0  5.009982669308814 19.99933237095591 0  6.00726686991053 19.99950744760966 0  7.004742039100916 19.99967572027038 0  8.00234071479502 19.99983912715687 0  8.999999999996996 19.9999999999934 0  -9 22 0  -8.002159858357047 21.99997880536261 0  -7.004378984656131 21.9999599890527 0  -6.006718503571043 21.99994615703141 0  -5.009243233324948 21.99994037534869 0  -4.009356902165046 21.99954582830856 0  -3.009244107594093 21.99915020731505 0  -2.005944915599366 21.99915871027942 0  -1.002813584987123 21.99915917759932 0  0.0002357420561029119 21.99915241010418 0  1.003286332356908 21.99913838101928 0  2.006421445045333 21.99911625174916 0  3.00972691820545 21.99908435678555 0  4.009839847938215 21.99946377326632 0  5.00972421084103 21.99984380354693 0  6.007077372656584 21.99987588231604 0  7.00461733402348 21.99991415936708 0  8.002278758874192 21.99995619663571 0  9 22 0  -9 24 0  -8.001851328165749 24.00008527585468 0  -7.003753579218092 24.00017619486468 0  -6.0057591107439 24.00027863270391 0  -5.007923046136513 24.00039894846638 0  -4.008021018334945 23.99953660131605 0  -3.007924846215021 23.99867325262159 0  -2.005080639183596 23.99871545838534 0  -1.002380154712869 23.99873639974808 0  0.0002500425318494679 23.99873707264021 0  1.002881428670696 23.99871758856377 0  2.005585482454054 23.99867717857884 0  3.008435650050367 23.99861418751138 0  4.008530073414293 23.99946592815511 0  5.008428397141511 24.00031794992655 0  6.00613631499421 24.00021948949195 0  7.004004178070986 24.00013753071444 0  8.001976358329324 24.00006617374604 0  9 24 0  -9 26 0  -8.001337702027714 26.00016920011659 0  -7.002712279606349 26.00034634066808 0  -6.004161628328133 26.00053959768143 0  -5.005725460476785 26.0007576338909 0  -4.00579769689106 25.999523452579 0  -3.005729080028838 25.99828846703261 0  -2.003646201046418 25.99835681812333 0  -1.001667718685177 25.99839425132733 0  0.0002597917771635559 25.99840191352656 0  1.002188427177378 25.99838003860966 0  2.004170288713977 25.99832794842068 0  3.006258816036602 25.99824405054278 0  4.006324321219038 25.99947177346953 0  5.006247120675168 26.00069954356389 0  6.004551153247147 26.00049708378369 0  7.002971133897566 26.0003185007759 0  8.00146687171687 26.00015543067587 0  9 26 0  -9 28 0  -8.000674939947636 28.00022139261461 0  -7.001368919190613 28.00045203992517 0  -6.002101562414458 28.0007014353621 0  -5.002893356854806 28.00097955808885 0  -4.002932972022228 27.9995075779825 0  -3.00289904302912 27.99803514058408 0  -2.001798813332984 27.99812138044054 0  -1.00075349508085 27.99817071178578 0  0.000265247569999151 27.9981844191698 0  1.001285053714835 27.99816285461872 0  2.002333563494802 27.99810543793793 0  3.003439116756557 27.99801065546646 0  4.003469096734713 27.99947996252144 0  5.00342376613514 28.00094923467575 0  6.00249775587318 28.0006791969977 0  7.001632272613866 28.00043745371293 0  8.000806378265237 28.000214
[...]
<PointData  Vectors="f_44-2"> 
<DataArray  type="Float64"  Name="f_44-2"  NumberOfComponents="3" format="ascii">0.0000000000000000e+00 0.0000000000000000e+00 0.0000000000000000e+00  0.0000000000000000e+00 0.0000000000000000e+00 0.0000000000000000e+00  0.0000000000000000e+00 0.0000000000000000e+00 0.0000000000000000e+00  0.0000000000000000e+00 0.0000000000000000e+00 0.0000000000000000e+00  0.0000000000000000e+00 0.0000000000000000e+00 0.0000000000000000e+00  0.0000000000000000e+00 0.0000000000000000e+00 0.0000000000000000e+00  0.0000000000000000e+00 0.0000000000000000e+00 0.0000000000000000e+00  0.0000000000000000e+00 0.0000000000000000e+00 0.0000000000000000e+00  0.0000000000000000e+00 0.0000000000000000e+00 0.0000000000000000e+00  0.0000000000000000e+00 0.0000000000000000e+00 0.0000000000000000e+00  0.0000000000000000e+00 0.0000000000000000e+00 0.0000000000000000e+00  0.0000000000000000e+00 0.0000000000000000e+00 0.0000000000000000e+00  0.0000000000000000e+00 0.0000000000000000e+00 0.0000000000000000e+00  0.0000000000000000e+00 0.0000000000000000e+00 0.0000000000000000e+00  0.0000000000000000e+00 0.0000000000000000e+00 0.0000000000000000e+00  0.0000000000000000e+00 0.0000000000000000e+00 0.0000000000000000e+00  0.0000000000000000e+00 0.0000000000000000e+00 0.0000000000000000e+00  0.0000000000000000e+00 0.0000000000000000e+00 0.0000000000000000e+00  0.0000000000000000e+00 0.0000000000000000e+00 0.0000000000000000e+00  0.0000000000000000e+00 0.0000000000000000e+00 0.0000000000000000e+00  6.3295912077787099e-06 1.0463766745833420e-06 0.0000000000000000e+00  1.3418347692848194e-05 2.8791560392160063e-06 0.0000000000000000e+00  2.2036851409393573e-05 6.2499365011215613e-06 0.0000000000000000e+00  3.3111108502923919e-05 1.1840875814060596e-05 0.0000000000000000e+00  3.0115937310605114e-05 5.9100133490866246e-06 0.0000000000000000e+00  2.5469704258136393e-05 5.2916923885014041e-06 0.0000000000000000e+00  2.0274985319762538e-05 6.8577347487047812e-06 0.0000000000000000e+00  1.3209854487818363e-05 8.1713081547797867e-06 0.0000000000000000e+00  5.0478533273199542e-06 8.4641668822253990e-06 0.0000000000000000e+00  -2.6593239922923914e-06 6.9776748266301646e-06 0.0000000000000000e+00  -8.1557763517907978e-06 3.7522719448012681e-06 0.0000000000000000e+00  -1.0260622638532379e-05 -2.7326029728754618e-09 0.0000000000000000e+00  -8.4577868127802653e-06 -4.0764856329015093e-06 0.0000000000000000e+00  -3.3410020469361034e-06 -6.6192026474898121e-06 0.0000000000000000e+00  -7.6897993480258195e-07 -7.4266982364776634e-06 0.0000000000000000e+00  4.5332951215847386e-07 -6.1752936525354504e-06 0.0000000000000000e+00  5.5111774936045489e-07 -3.4680551129573371e-06 0.0000000000000000e+00  0.0000000000000000e+00 0.0000000000000000e+00 0.0000000000000000e+00  0.0000000000000000e+00 0.0000000000000000e+00 0.0000000000000000e+00  9.6221682001501279e-06 -1.0528216553679289e-06 0.0000000000000000e+00  2.0717255284365792e-05 -3.9375923341513119e-07 0.0000000000000000e+00  3.4250225048269495e-05 3.6192544171632410e-06 0.0000000000000000e+00  5.0170955507172837e-05 1.2426768263758454e-05 0.0000000000000000e+00  5.2068023213998551e-05 1.0410875667547046e-05 0.0000000000000000e+00  5.0470207657971117e-05 1.5985293456333659e-05 0.0000000000000000e+00  4.3349289342682464e-05 2.4129370252203065e-05 0.0000000000000000e+00  3.1434655902924826e-05 3.1123769160689872e-05 0.0000000000000000e+00  1.7304209076849853e-05 3.2971549511654231e-05 0.0000000000000000e+00  3.4787074479729764e-06 2.7581701986461018e-05 0.0000000000000000e+00  -7.3535306196369241e-06 1.6572403443518793e-05 0.0000000000000000e+00  -1.2222179574181965e-05 1.8948967858575719e-06 0.0000000000000000e+00  -9.6680703448832231e-06 -1.4326170083560283e-05 0.0000000000000000e+00  -8.2941586988562887e-07 -2.3947581828098639e-05 0.0000000000000000e+00  3.8614418662550535e-06 -2.3088333260706127e-05 0.0000000000000000e+00  5.4047070274145213e-06 -1.8173108142955406e-05 0.0000000000000000e+00  3.6975966902320189e-06 -9.9785850593917262e-06 0.0000000000000000e+00  0.0000000000000000e+00 0.0000000000000000e+00 0.0000000000000000e+00  0.0000000000000000e+00 0.0000000000000000e+00 0.0000000000000000e+00  7.0233901251738137e-06 -9.9974426827650882e-06 0.0000000000000000e+00  1.8264973033689670e-05 -1.7080150438157736e-05 0.0000000000000000e+00  3.6913991831084640e-05 -1.8186359693774476e-05 0.0000000000000000e+00  6.3875167841182244e-05 -1.0499666213917992e-05 0.0000000000000000e+00  7.7425656435050697e-05 -2.7556002270924704e-07 0.0000000000000000e+00  7.9839643896425795e-05 2.4321584757472712e-05 0.0000000000000000e+00  6.8858832831765517e-05 5.0988704028113335e-05 0.0000000000000000e+00  5.1782690571968817e-05 6.5878457229936511e-05 0.0000000000000000e+00  3.3844366367600933e-05 6.7270639726812903e-05 0.0000000000000000e+00  1.5962885767426018e-05 5.9590803802554705e-05 0.0000000000000000e+00  -9.9413106057412494e-08 3.9708030634414012e-05 0.0000000000000000e+00  -1.0175916530326973e-05 5.4898378758933358e-06 0.0000000000000000e+00  -9.7051069725192786e-06 -3.1614317857402311e-05 0.0000000000000000e+00  7.2075316869551296e-06 -5.4812293370991111e-05 0.0000000000000000e+00  2.1081624161257466e-05 -5.4970168378196460e-05 0.0000000000000000e+00  2.3355743360614796e-05 -4.3284018947311928e-05 0.0000000000000000e+00  1.4803876384757718e-05 -2.3621652555916864e-05 0.0000000000000000e+00  0.0000000000000000e+00 0.0000000000000000e+00 0.0000000000000000e+00  0.0000000000000000e+00 0.0000000000000000e+00 0.0000000000000000e+00  -1.2459886068815868e-05 -3.0854737363495322e-05 0.0000000000000000e+00  -1.3809567093400807e-05 -5.7657002903490132e-05 0.0000000000000000e+00  6.3419417824016575e-06 -7.5146357413442364e-05 0.0000000000000000e+00  5.6279595942146204e-05 -7.4906187685773679e-05 0.0000000000000000e+00  9.2130353012015819e-05 -1.7459997709528360e-05 0.0000000000000000e+00  8.1009019224719645e-05 5.1739093274915360e-05 0.0000000000000000e+00  6.1864462105567695e-05 8.6242153803791079e-05 0.0000000000000000e+00  5.4989278368977471e-05 9.0640291488823136e-05 0.0000000000000000e+00  5.7763246079196756e-05 9.2337881068629669e-05 0.0000000000000000e+00  5.6268527362835656e-05 9.7929873501101614e-05 0.0000000000000000e+00  4.4173620025183965e-05 7.6562397886722718e-05 0.0000000000000000e+00  1.2683648907209012e-05 4.2814325571997537e-05 0.0000000000000000e+00  -6.1329495800649556e-06 -4.4272005964189841e-05 0.0000000000000000e+00  3.7639590333484959e-05 -1.4400207222039422e-04 0.0000000000000000e+00  8.4685415893998812e-05 -1.3419856000334380e-04 0.0000000000000000e+00  8.4591003830460882e-05 -1.0027696345118179e-04 0.0000000000000000e+00  5.0901358737404568e-05 -5.3084950603930596e-05 0.0000000000000000e+00  0.0000000000000000e+00 0.0000000000000000e+00 0.0000000000000000e+00  0.0000000000000000e+00 0.0000000000000000e+00 0.0000000000000000e+00  -7.6304709109401210e-05 -6.7859617626789666e-05 0.0000000000000000e+00  -1.3211726338645708e-04 -1.3563723336728614e-04 0.0000000000000000e+00  -1.4328447956816115e-04 -2.0285719464812048e-04 0.0000000000000000e+00  -7.6582544637867093e-05 -2.6790416186392928e-04 0.0000000000000000e+00  -1.4462926755909439e-05 -6.8417978066957264e-05 0.0000000000000000e+00  -3.2192236990495688e-05 1.0284128183906630e-04 0.0000000000000000e+00  -1.7003566365922371e-05 7.3106479447984651e-05 0.0000000000000000e+00  3.1110526517558805e-05 6.3439374486447847e-05 0.0000000000000000e+00  6.6936762862357130e-05 6.0766686194778984e-05 0.0000000000000000e+00  1.0491617301352298e-04 6.0592343028654796e-05 0.0000000000000000e+00  1.6368852664570835e-04 5.7655869334764321e-05 0.0000000000000000e+00  2.0215525167386928e-04 1.4906597134649549e-04 0.0000000000000000e+00  1.7585525841075990e-04 -8.5103852104465548e-05 0.0000000000000000e+00  2.7739334687171621e-04 -3.9904910516350660e-04 0.0000000000000000e+00  3.3661542458296928e-04 -3.0971539343702353e-04 0.0000000000000000e+00  2.8005206190520371e-04 -2.1024981181633608e-04 0.0000000000000000e+00  1.5574614388402940e-04 -1.0605685141383745e-04 0.0000000000000000e+00  0.0000000000000000e+00 0.0000000000000000e+00 0.0000000000000000e+00  0.0000000000000000e+00 0.0000000000000000e+00 0.0000000000000000e+00  -2.2173177281155861e-04 -1.0505077531289158e-04 0.0000000000000000e+00  -4.2836134028843663e-04 -2.1560368022221260e-04 0.0000000000000000e+00  -6.0259816036121951e-04 -3.3814996760247464e-04 0.0000000000000000e+00  -7.2232459613818275e-04 -4.8156380334578623e-04 0.0000000000000000e+00  -6.8422004492342374e-04 -9.8382724679483327e-05 0.0000000000000000e+00  -7.1602187347823989e-04 2.7986378337205964e-04 0.0000000000000000e+00  -4.0018700221294314e-04 2.5103464736100472e-04 0.0000000000000000e+00  -4.7041940174152858e-05 2.4407069388800463e-04 0.0000000000000000e+00  3.1658176227242701e-04 2.5967279983817813e-04 0.0000000000000000e+00  6.7403971987734120e-04 3.0040420782237464e-04 0.0000000000000000e+00  1.0073745900194921e-03 3.7305617712025556e-04 0.0000000000000000e+00  1.2844905704264364e-03 4.9269691815394950e-04 0.0000000000000000e+00  1.2199432209569689e-03 -1.1862186127600648e-04 0.0000000000000000e+00  1.2634447153536156e-03 -7.3707712811495272e-04 0.0000000000000000e+00  1.0504323179129605e-03 -5.2530319386729968e-04 0.0000000000000000e+00  7.4585643543594504e-04 -3.3885796763330467e-04 0.0000000000000000e+00  3.8597390689268466e-04 -1.6631637913474729e-04 0.0000000000000000e+00  0.0000000000000000e+00 0.0000000000000000e+00 0.0000000000000000e+00  0.0000000000000000e+00 0.0000000000000000e+00 0.0000000000000000e+00  -4.2674993772017118e-04 -1.2006607948000037e-04 0.0000000000000000e+00  -8.5284424904540307e-04 -2.4730311965083870e-04 0.0000000000000000e+00  -1.2776424658523793e-03 -3.8953634326223288e-04 0.0000000000000000e+00  -1.7008271995116993e-03 -5.5592314610056854e-04 0.0000000000000000e+00  -1.7016135238773337e-03 -8.8762242265561726e-05 0.0000000000000000e+00  -1.7071180478142834e-03 3.8248268174152550e-04 0.0000000000000000e+00  -9.3418639016801979e-04 3.4179160725326919e-04 0.0000000000000000e+00  -1.6759787786598833e-04 3.3471458675097746e-04 0.0000000000000000e+00  5.9151736988790899e-04 3.5835346631262182e-04 0.0000000000000000e+00  1.3415366149846027e-03 4.1293402221280229e-04 0.0000000000000000e+00  2.0791452723532278e-03 5.0108139815908156e-04 0.0000000000000000e+00  2.7974601452117847e-03 6.2698953644637961e-04 0.0000000000000000e+00  2.7819358730292753e-03 -1.3437927469841962e-04 0.0000000000000000e+00  2.8020188120807784e-03 -8.9393432485253895e-04 0.0000000000000000e+00  2.1277219786454845e-03 -6.3865618515897748e-04 0.0000000000000000e+00  1.4312918088796700e-03 -4.1120987206656398e-04 0.0000000000000000e+00  7.1953943337630126e-04 -2.0136446115907763e-04 0.0000000000000000e+00  0.0000000000000000e+00 0.0000000000000000e+00 0.0000000000000000e+00  0.0000000000000000e+00 0.0000000000000000e+00 0.0000000000000000e+00  -6.3325467302227949e-04 -1.0627783006523947e-04 0.0000000000000000e+00  -1.2806107000607331e-03 -2.1876062170030102e-04 0.0000000000000000e+00  -1.9560399815697137e-03 -3.4391151804507772e-04 0.0000000000000000e+00  -2.6761803636414553e-03 -4.8866319995181473e-04 0.0000000000000000e+00  -2.7038927329472596e-03 -8.2210101210872380e-05 0.0000000000000000e+00  -2.6762750062904041e-03 3.2156608783930009e-04 0.0000000000000000e+00  -1.4459849923610969e-03 2.9914103460100381e-04 0.0000000000000000e+00  -2.5942818373592510e-04 3.0336765414014485e-04 0.0000000000000000e+00  9.0333383244659829e-04 3.3408898645475953e-04 0.0000000000000000e+00  2.0610920093811942e-03 3.9203840374742654e-04 0.0000000000000000e+00  3.2322273459035830e-03 4.7893326278496508e-04 0.0000000000000000e+00  4.4357693039684693e-03 5.9739303428712706e-04 0.0000000000000000e+00  4.4570260103754377e-03 -1.4737465537771396e-04 0.0000000000000000e+00  4.4358257930303064e-03 -8.9361861449603044e-04 0.0000000000000000e+00  3.2886185784448780e-03 -6.3993813086420462e-04 0.0000000000000000e+00  2.1749948250613725e-03 -4.1264660900508835e-04 0.0000000000000000e+00  1.0824587553304856e-03 -2.0222155226315932e-04 0.0000000000000000e+00  0.0000000000000000e+00 0.0000000000000000e+00 0.0000000000000000e+00  0.0000000000000000e+00 0.0000000000000000e+00 0.0000000000000000e+00  -7.8376846041503358e-04 -6.7626828898214084e-05 0.0000000000000000e+00  -1.5924174930268427e-03 -1.3941359331445395e-04 0.0000000000000000e+00  -2.4519278905416439e-03 -2.1962096874534803e-04 0.0000000000000000e+00  -3.3905101149357660e-03 -3.1278126598379964e-04 0.0000000000000000e+00  -3.4382276048120757e-03 -7.8699633512388368e-05 0.0000000000000000e+00  -3.3892677279628598e-03 1.5396721927402165e-04 0.0000000000000000e+00  -1.7868664315682271e-03 1.5114390863452424e-04 0.0000000000000000e+00  -2.5794308148251687e-04 1.6709562035677907e-04 0.0000000000000000e+00  1.2354886499637446e-03 2.0196573198508425e-04 0.0000000000000000e+00  2.7296504705668122e-03 2.5641670398806406e-04 0.0000000000000000e+00  4.2607186721816117e-03 3.3157543383245051e-04 0.0000000000000000e+00  5.8666566664339224e-03 4.2899271000298490e-04 0.0000000000000000e+00  5.9157579951348476e-03 -1.5720572472293606e-04 0.0000000000000000e+00  5.8672870429565711e-03 -7.4343788408512510e-04 0.0000000000000000e+00  4.3091850418486236e-03 -5.3507579380262604e-04 0.0000000000000000e+00  2.8305592234642383e-03 -3.4627335690075978e-04 0.0000000000000000e+00  1.4028620815122535e-03 -1.7012024791647164e-04 0.0000000000000000e+00  0.0000000000000000e+00 0.0000000000000000e+00 0.0000000000000000e+00  0.0000000000000000e+00 0.0000000000000000e+00 0.0000000000000000e+00  -8.3358503352241712e-04 -1.2329520141412465e-05 0.0000000000000000e+00  -1.6983808738071414e-03 -2.6300993654497234e-05 0.0000000000000000e+00  -2.6268638241969504e-03 -4.3575086106998812e-05 0.0000000000000000e+00  -3.6540882009142078e-03 -6.5863840804470837e-05 0.0000000000000000e+00  -3.7128136493707769e-03 -7.6567171640357499e-05 0.0000000000000000e+00  -3.6507063465378463e-03 -8.8975403060226601e-05 0.0000000000000000e+00  -1.8392944434427944e-03 -7.0966834100556539e-05 0.0000000000000000e+00  -1.1696411284740426e-04 -4.4001086974873546e-05 0.0000000000000000e+00  1.5649332834999626e-03 -7.5994039109504705e-06 0.0000000000000000e+00  3.2533999652946295e-03 3.8841459912631141e-05 0.0000000000000000e+00  4.9955329866742037e-03 9.6042535191765796e-05 0.0000000000000000e+00  6.8406077798485246e-03 1.6482062253071807e-04 0.0000000000000000e+00  6.9077356358526682e-03 -1.6047518705139004e-04 0.0000000000000000e+00  6.8412451848496366e-03 -4.8603346239801080e-04 0.0000000000000000e+00  5.0054128807667901e-03 -3.5173521022694414e-04 0.0000000000000000e+00  3.2786991526851054e-03 -2.2850440225428994e-04 0.0000000000000000e+00  1.6221487831633902e-03 -1.1247135670048900e-04 0.0000000000000000e+00  -3.6708277194698151e-10 0.0000000000000000e+00 0.0000000000000000e+00  0.0000000000000000e+00 0.0000000000000000e+00 0.0000000000000000e+00  -7.5738248484091082e-04 4.9553214618633756e-05 0.0000000000000000e+00  -1.5470470215572603e-03 1.0008634340649500e-04 0.0000000000000000e+00  -2.4024991374511271e-03 1.5264285955099601e-04 0.0000000000000000e+00  -3.3598385631696116e-03 2.0836043751187039e-04 0.0000000000000000e+00  -3.4200373420231966e-03 -7.7762833135547576e-05 0.0000000000000000e+00  -3.3554889331055171e-03 -3.6589469789080023e-04 0.0000000000000000e+00  -1.5412204366884836e-03 -3.2851508254886231e-04 0.0000000000000000e+00  1.8277154737172057e-04 -2.9243226673406595e-04 0.0000000000000000e+00  1.8683119522876187e-03 -2.5690448446235865e-04 0.0000000000000000e+00  3.5655504285409499e-03 -2.2135973166381701e-04 0.0000000000000000e+00  5.3248854827035678e-03 -1.8539684654328770e-04 0.0000000000000000e+00  7.1989324047111699e-03 -1.4879727510596654e-04 0.0000000000000000e+00  7.2723660785083289e-03 -1.5873070106280218e-04 0.0000000000000000e+00  7.1982502186377908e-03 -1.6933089200367213e-04 0.0000000000000000e+00  5.2600465888303499e-03 -1.2466298650061971e-04 0.0000000000000000e+00  3.4420658199425286e-03 -8.1958874717772217e-05 0.0000000000000000e+00  1.7019173183617370e-03 -4.0625931367628879e-05 0.0000000000000000e+00  0.0000000000000000e+00 0.0000000000000000e+00 0.0000000000000000e+00  0.0000000000000000e+00 0.0000000000000000e+00 0.0000000000000000e+00  -5.5070097392792376e-04 1.0756879430130889e-04 0.0000000000000000e+00  -1.1297426441787240e-03 2.1845891025847760e-04 0.0000000000000000e+00  -1.7658680775834658e-03 3.3632413668349686e-04 0.0000000000000000e+00  -2.4914083626810060e-03 4.6480818909010234e-04 0.0000000000000000e+00  -2.5439634899048907e-03 -8.3591170980475309e-05 0.0000000000000000e+00  -2.4872399209507874e-03 -6.3410468588598909e-04 0.0000000000000000e+00  -8.8796355212315619e-04 -5.8101678520884061e-04 0.0000000000000000e+00  6.3361779918348648e-04 -5.3876916486796209e-04 0.0000000000000000e+00  2.1251539307166451e-03 -5.0639576462924705e-04 0.0000000000000000e+00  3.6325361366921888e-03 -4.8334977457963860e-04 0.0000000000000000e+00  5.2019711056835284e-03 -4.6950390493473979e-04 0.0000000000000000e+00  6.8816765453078074e-03 -4.6516143027209878e-04 0.0000000000000000e+00  6.9500107969333990e-03 -1.5359995294447412e-04 0.0000000000000000e+00  6.8784877573075985e-03 1.5696115584798516e-04 0.0000000000000000e+00  5.0275694532026013e-03 1.1022970285075412e-04 0.0000000000000000e+00  3.2904108125149088e-03 7.0038595091060518e-05 0.0000000000000000e+00  1.6270579024248099e-03 3.4007752051374126e-05 0.0000000000000000e+00  0.0000000000000000e+00 0.0000000000000000e+00 0.0000000000000000e+00  0.0000000000000000e+00 0.0000000000000000e+00 0.0000000000000000e+00  -2.2978761375054427e-04 1.5237732188964629e-04 0.0000000000000000e+00  -4.7921388549662056e-04 3.0984603080699136e-04 0.0000000000000000e+00  -7.6879449689993933e-04 4.7764273705219702e-04 0.0000000000000000e+00  -1.1206439227116776e-03 6.6288141401614302e-04 0.0000000000000000e+00  -1.1575354316242486e-03 -9.4522592998902939e-05 0.0000000000000000e+00  -1.1173297609968979e-03 -8.5390617428586317e-04 0.0000000000000000e+00  6.8649123580762282e-05 -7.9067739421146159e-04 0.0000000000000000e+00  1.2019963590181946e-03 -7.4612045377443217e-04 0.0000000000000000e+00  2.3189019384792140e-03 -7.1908238802339457e-04 0.0000000000000000e+00  3.4545852011100536e-03 -7.0904021125554135e-04 0.0000000000000000e+00  4.6446278822256390e-03 -7.1609708359410794e-04 0.0000000000000000e+00  5.9260472222607405e-03 -7.4099329647326490e-04 0.0000000000000000e+00  5.9795205284309981e-03 -1.4689703355604504e-04 0.0000000000000000e+00  5.9198027671572059e-03 4.4597174491243575e-04 0.0000000000000000e+00  4.3340191932486520e-03 3.1891659610824190e-04 0.0000000000000000e+00  2.8398838394580110e-03 2.0537760429452229e-04 0.0000000000000000e+00  1.4052996546926799e-03 1.0055161544195951e-04 0.0000000000000000e+00  0.0000000000000000e+00 0.0000000000000000e+00 0.0000000000000000e+00  0.0000000000000000e+00 0.0000000000000000e+00 0.0000000000000000e+00  1.7175090155329846e-04 1.7689508496622245e-04 0.0000000000000000e+00  3.3557766332380397e-04 3.6001272161612861e-04 0.0000000000000000e+00  4.8299034765150181e-04 5.5580550951143861e-04 0.0000000000000000e+00  6.0479326436920075e-04 7.7129777798494697e-04 0.0000000000000000e+00  5.8966006866826193e-04 -1.0976844076436881e-04 0.0000000000000000e+00  6.0732422520269125e-04 -9.9243679175488471e-04 0.0000000000000000e+00  1.2301363879428837e-03 -9.2626648296999649e-04 0.0000000000000000e+00  1.8335951199858005e-03 -8.8400699084649850e-04 0.0000000000000000e+00  2.4378644371085096e-03 -8.6439162521764670e-04 0.0000000000000000e+00  3.0626290856643383e-03 -8.6693626681774271e-04 0.0000000000000000e+00  3.7279010136875446e-03 -8.9193110456948360e-04 0.0000000000000000e+00  4.4547544043716525e-03 -9.4045150310998556e-04 0.0000000000000000e+00  4.4863866193807032e-03 -1.3989403787961218e-04 0.0000000000000000e+00  4.4459357297080438e-03 6.5939016614191201e-04 0.0000000000000000e+0