<?xml version="1.0"?>
<VTKFile type="UnstructuredGrid"  version="0.1"  >
<UnstructuredGrid>
<Piece  NumberOfPoints="589" NumberOfCells="1080">
<Points>
<DataArray  type="Float64"  NumberOfComponents="3"  format="ascii">-9 0 0  -8 0 0  -7 0 0  -6 0 0  -5 0 0  -4 0 0  -3 0 0  -2 0 0  -1 0 0  0 0 0  1 0 0  2 0 0  3 0 0  4 0 0  5 0 0  6 0 0  7 0 0  8 0 0  9 0 0  -9 2 0  -8.000008276473372 1.999987524752437 0  -7.000017375897157 1.999976583835124 0  -6.000029223928302 1.999968422677678 0  -5.000048214340734 1.999963585959408 0  -4.00002859422426 1.999972786137229 0  -3.000008381519642 1.999981498430099 0  -1.999998488178875 1.999989667576679 0  -0.9999967667222888 1.999996120168997 0  -1.432402626679351e-07 1.999998939911156 0  0.999996130368873 1.999996955085851 0  1.999996670240429 1.999990632919803 0  3.00000458787762 1.999982868953724 0  4.000020870251865 1.999974525891419 0  5.000044461146513 1.999971013504743 0  6.00002689398232 1.999972309262927 0  7.000016016054276 1.999978675156404 0  8.000007651638049 1.999988465716078 0  9 2 0  -9 4 0  -8.000013260940872 3.99996891307196 0  -7.000023757409265 3.999942049291974 0  -6.000029878223875 3.999923547957734 0  -5.000031969681599 3.999917361686211 0  -4.000003391233528 3.999921587081604 0  -2.999984164096634 3.999946089148763 0  -1.999979041808582 3.99997801040706 0  -0.9999861605972138 4.000003682299987 0  5.584745304503028e-08 4.000014005747182 0  0.9999859875463017 4.00000584555797 0  1.99997791529879 3.999983877599842 0  2.999982128319432 3.999954129608152 0  4.000000540028728 3.9999241641844 0  5.000028536420588 3.999913955304845 0  6.000027030788158 3.999924338593675 0  7.000021977800334 3.999943652631047 0  8.000012451768919 3.999969957552564 0  9 4 0  -9 6 0  -8.0000293022009 5.999933413156574 0  -7.000047641464354 5.999874068995733 0  -6.000046649962427 5.999829416867292 0  -5.000023920951088 5.999806609023306 0  -3.999968171172711 5.999842876062308 0  -2.999942732969027 5.999918771580598 0  -1.999952543340554 5.999998352354783 0  -0.9999772866563753 6.000042621601272 0  -2.358889555885544e-06 6.000051491073763 0  0.9999750971375746 6.000037053555028 0  1.999957961991126 5.999997173948776 0  2.999951669376197 5.999929805385359 0  3.999965061948936 5.999859901016367 0  5.000012851876932 5.999825155753254 0  6.000041356982345 5.999840648700182 0  7.000045830521849 5.999880670918408 0  8.000028953077701 5.999936503429795 0  9 6 0  -9 8 0  -8.000089182521227 7.999868962594463 0  -7.000148840954819 7.999747342193722 0  -6.00015036723414 7.99964793001751 0  -5.000069243887947 7.99959181528312 0  -3.999961560017914 7.999759489185375 0  -2.999981093597136 7.99995653318109 0  -2.000021202564142 8.00005264918965 0  -1.0000244420708 8.000063739680936 0  -2.631716996098053e-07 8.000066992583756 0  1.000017816571805 8.000076672474496 0  2.000010442435335 8.000036301959533 0  2.999963609428319 7.999967557087962 0  3.999947886167686 7.999797465067266 0  5.000054140836626 7.999605523031235 0  6.000151793996869 7.999658871706063 0  7.000155069339607 7.999754471017925 0  8.000093741567987 7.999872410482821 0  9 8 0  -9 10 0  -8.000267058046882 9.999766925565366 0  -7.000482460943506 9.999531908720421 0  -6.000584579193887 9.999293461714391 0  -5.000487526416261 9.999051185107216 0  -4.000317059316929 9.999592113657361 0  -3.000344415296116 10.00005724861227 0  -2.000274760156042 9.999977531240244 0  -1.000124692744357 9.999951940724756 0  -1.395525340379598e-05 9.999945685115252 0  1.000095991937645 9.999946120940091 0  2.000242425941562 9.999943026424564 0  3.000371349908234 10.00011093982581 0  4.000355231902474 9.999666954027541 0  5.000549982254016 9.99908110568167 0  6.000639523413863 9.999308261306485 0  7.000522582349678 9.999539005132229 0  8.000288094632449 9.999769777374647 0  9 10 0  -9 12 0  -8.000651086167792 11.99967283200165 0  -7.001268455272869 11.99933048908044 0  -6.00181399721576 11.99895482247437 0  -5.002240396137752 11.99852052992856 0  -4.002153590217697 11.99950590901794 0  -3.00223200641957 12.00048135852868 0  -2.001527338046075 12.000363872718 0  -1.000744820392436 12.00030065325623 0  6.692121742304968e-05 12.0002889875238 0  1.000886247330666 12.00033096295281 0  2.001694815159833 12.00043858625586 0  3.002456043635148 12.00064186092655 0  4.002371363832791 11.99957636232781 0  5.002427557657832 11.9985019597636 0  6.001952103185676 11.99894368800578 0  7.001359741787399 11.99932366514091 0  8.000696544496755 11.99966949125719 0  9 12 0  -9 14 0  -8.001169017842191 13.99963963435608 0  -7.002340213761139 13.99926270384865 0  -6.003517344948376 13.99885118314258 0  -5.004708167863503 13.99838418164797 0  -4.004720921558588 13.99953448037952 0  -3.004727636624245 14.00069931322451 0  -2.003093135982156 14.00053351204512 0  -1.00148263354245 14.00044347193833 0  0.0001177063226071469 14.00041802193089 0  1.001720982078019 14.00045357996216 0  2.003339291182207 14.0005520692258 0  3.004982121771561 14.00071882852444 0  4.004994501654181 13.99953404891362 0  5.005001919836642 13.99835654504204 0  6.003729940771485 13.9988268952262 0  7.002478856104985 13.99924539362599 0  8.001237516616063 13.999630729127 0  9 14 0  -9 16 0  -8.001676922718646 15.99967282647448 0  -7.003386065361186 15.99933355559914 0  -6.005162438454665 15.99896988262292 0  -5.007046723280349 15.99856927853337 0  -4.007114300049259 15.99954850338801 0  -3.00705052115062 16.00052248301688 0  -2.004566358499943 16.00040117020085 0  -1.002181283279946 16.00032878757435 0  0.0001568264397219438 16.00030379980951 0  1.002497207396548 16.00032523575355 0  2.004889087215338 16.00039323678588 0  3.00738483141474 16.00050880648435 0  4.007455979198777 15.99950285012766 0  5.007393596586988 15.9984961049966 0  6.005420193358836 15.99891803939071 0  7.003556559174538 15.99930014457682 0  8.001761745458746 15.99965642101057 0  9 16 0  -9 18 0  -8.002054565617071 17.99975444182984 0  -7.004160512475377 17.99950215268847 0  -6.006371892621285 17.99923652789134 0  -5.008748059639879 17.99895123764151 0  -4.008849777560102 17.99955141680732 0  -3.008751678562623 18.00015078098278 0  -2.005647610932476 18.00007398051073 0  -1.002694111652298 18.00002543076214 0  0.0001868032326280223 18.00000478036791 0  1.003069331885407 18.00001150963086 0  2.006027566936388 18.00004497173239 0  3.009139131238944 18.00010424555306 0  4.009242864490687 17.99947968162899 0  5.009143990852809 17.99885691091091 0  6.006666790821288 17.99916884076242 0  7.004356101862102 17.99945842012506 0  8.002152054364521 17.99973297944123 0  9 18 0  -9 20 0  -8.002225401997267 19.99986295945508 0  -7.004510687402838 19.99972412596539 0  -6.006918021374332 19.99958191045564 0  -5.009514129123421 19.99943512138848 0  -4.009630014199207 19.99955120349415 0  -3.009515472877927 19.99966635667085 0  -2.006131535794849 19.99963443023369 0  -1.002918942866911 19.99961114086321 0  0.0002102452656550507 19.99959690519385 0  1.003340788407601 19.99959149374535 0  2.006557415719342 19.99959405388156 0  3.009947987724155 19.99960305417335 0  4.010064974975021 19.9994682819034 0  5.009949513728798 19.99933470063679 0  6.007242634272355 19.99950914005661 0  7.004726175323212 19.99967682243756 0  8.002332869531616 19.99983967041707 0  8.999999999997886 19.9999999999934 0  -9 22 0  -8.002155518731785 21.9999786247458 0  -7.004370141570475 21.99995962246204 0  -6.006704823617267 21.99994559339609 0  -5.009224200419584 21.99993959701008 0  -4.009337560677947 21.99954642786348 0  -3.009225089962956 21.99915219341208 0  -2.005935101377278 21.99916054402953 0  -1.002812513489668 21.9991608694699 0  0.0002282737092435826 21.99915396712221 0  1.003270277483329 21.99913980798098 0  2.00639650635848 21.99911755242363 0  3.009692537437667 21.99908553517401 0  4.009805108453337 21.99946474253107 0  5.009689835760335 21.99984456601522 0  6.007052270681883 21.99987644986437 0  7.004600916302418 21.99991453535832 0  8.002270643794391 21.99995638384845 0  9 22 0  -9 24 0  -8.001847996609699 24.00008479992708 0  -7.003746772379624 24.00017522629307 0  -6.005748543511499 24.00027713785669 0  -5.007908267342089 24.00039687485243 0  -4.008005970768278 23.99953722916615 0  -3.007910080566381 23.99867659104249 0  -2.005073940098188 23.99871856179261 0  -1.002381127975232 23.99873932425801 0  0.0002415595462163766 23.99873986994777 0  1.002865373221686 23.99872030815031 0  2.005561565256036 23.99867986991754 0  3.008403346079505 23.99861690231917 0  4.008497443190377 23.99946687530642 0  5.008396112375828 24.00031713336663 0  6.00611273183258 24.00021891887573 0  7.003988750533188 24.00013716958017 0  8.001968731807581 24.00006599884047 0  9 24 0  -9 26 0  -8.001335956549081 26.00016849540705 0  -7.002708688892016 26.00034490587239 0  -6.004155988975644 26.00053738115049 0  -5.005717457502429 26.00075455905148 0  -4.005789502509408 25.99952413205846 0  -3.0057210846427 25.99829290928975 0  -2.00364416723727 25.99836096931977 0  -1.00167137416399 25.99839820425246 0  0.0002505437259498686 25.99840575573606 0  1.002173512278082 25.99838385546492 0  2.004149460556514 25.99833182611358 0  3.006231648445375 25.99824807916405 0  4.006296904671308 25.99947269094972 0  5.006219988106909 26.00069735489473 0  6.004531301786173 26.00049552103683 0  7.002958132496683 26.00031749559321 0  8.001460439995482 26.00015493892046 0  9 26 0  -9 28 0  -8.000675189701681 28.0002205603075 0  -7.001369376166521 28.00045034513787 0  -6.002102138912957 28.00069881680331 0  -5.002893916804132 28.0009759214166 0  -4.002933446114468 27.99950832858836 0  -3.002899605307043 27.9980402851477 0  -2.001802505387751 27.99812621125935 0  -1.000760206634547 27.99817534588324 0  0.0002555302975509329 27.99818896780829 0  1.001272249828619 27.99816742694508 0  2.00231749619107 27.99811014459712 0  3.003419508649069 27.99801561225856 0  4.003449348262843 27.99948084864598 0  5.003404206302661 28.00094605527423 0  6.002483389503616 28.00067691563946 0  7.001622837115078 28.00043598096665 0  8.00080170254
[...]
<PointData  Vectors="f_44-2"> 
<DataArray  type="Float64"  Name="f_44-2"  NumberOfComponents="3" format="ascii">0.0000000000000000e+00 0.0000000000000000e+00 0.0000000000000000e+00  0.0000000000000000e+00 0.0000000000000000e+00 0.0000000000000000e+00  0.0000000000000000e+00 0.0000000000000000e+00 0.0000000000000000e+00  0.0000000000000000e+00 0.0000000000000000e+00 0.0000000000000000e+00  0.0000000000000000e+00 0.0000000000000000e+00 0.0000000000000000e+00  0.0000000000000000e+00 0.0000000000000000e+00 0.0000000000000000e+00  0.0000000000000000e+00 0.0000000000000000e+00 0.0000000000000000e+00  0.0000000000000000e+00 0.0000000000000000e+00 0.0000000000000000e+00  0.0000000000000000e+00 0.0000000000000000e+00 0.0000000000000000e+00  0.0000000000000000e+00 0.0000000000000000e+00 0.0000000000000000e+00  0.0000000000000000e+00 0.0000000000000000e+00 0.0000000000000000e+00  0.0000000000000000e+00 0.0000000000000000e+00 0.0000000000000000e+00  0.0000000000000000e+00 0.0000000000000000e+00 0.0000000000000000e+00  0.0000000000000000e+00 0.0000000000000000e+00 0.0000000000000000e+00  0.0000000000000000e+00 0.0000000000000000e+00 0.0000000000000000e+00  0.0000000000000000e+00 0.0000000000000000e+00 0.0000000000000000e+00  0.0000000000000000e+00 0.0000000000000000e+00 0.0000000000000000e+00  0.0000000000000000e+00 0.0000000000000000e+00 0.0000000000000000e+00  0.0000000000000000e+00 0.0000000000000000e+00 0.0000000000000000e+00  0.0000000000000000e+00 0.0000000000000000e+00 0.0000000000000000e+00  4.3285131168697265e-06 -1.6857658200638073e-06 0.0000000000000000e+00  9.2091758388096547e-06 -2.2807022160684530e-06 0.0000000000000000e+00  1.4965435314688891e-05 -7.9130665202055457e-07 0.0000000000000000e+00  2.1534824379961834e-05 3.5567941429838916e-06 0.0000000000000000e+00  2.2879732616795099e-05 -1.8471274535250626e-07 0.0000000000000000e+00  2.2769185230981857e-05 1.0969628115999013e-06 0.0000000000000000e+00  1.9901684611040413e-05 4.3691761431930058e-06 0.0000000000000000e+00  1.3466006626486143e-05 7.0269113053744532e-06 0.0000000000000000e+00  4.8733662917032148e-06 7.9137709201072012e-06 0.0000000000000000e+00  -3.3512503467223311e-06 6.0429834071283357e-06 0.0000000000000000e+00  -8.5131720149240397e-06 1.5525955431239705e-06 0.0000000000000000e+00  -8.7961917262737378e-06 -3.7659647625241252e-06 0.0000000000000000e+00  -3.4821426994891125e-06 -9.5300148053709645e-06 0.0000000000000000e+00  6.6380532353240527e-06 -1.2789629393985066e-05 0.0000000000000000e+00  5.2379683525495262e-06 -1.3257320866826290e-05 0.0000000000000000e+00  4.0027267737444321e-06 -1.0639633803948160e-05 0.0000000000000000e+00  2.2355266776908394e-06 -5.8756310060528897e-06 0.0000000000000000e+00  0.0000000000000000e+00 0.0000000000000000e+00 0.0000000000000000e+00  0.0000000000000000e+00 0.0000000000000000e+00 0.0000000000000000e+00  6.4481764866729135e-06 -7.7344331822776399e-06 0.0000000000000000e+00  1.4915508767392890e-05 -1.2898513561811398e-05 0.0000000000000000e+00  2.6677951178194645e-05 -1.3017266750908933e-05 0.0000000000000000e+00  4.1609580638883919e-05 -5.8481413737571992e-06 0.0000000000000000e+00  4.9609848203148627e-05 -6.9085974998499448e-06 0.0000000000000000e+00  5.2225030771072609e-05 3.7453002615501678e-06 0.0000000000000000e+00  4.6469111694679688e-05 1.8487041129278403e-05 0.0000000000000000e+00  3.3448418583995755e-05 3.0770573721989660e-05 0.0000000000000000e+00  1.6853492090933258e-05 3.4770356759435396e-05 0.0000000000000000e+00  4.9408325439634078e-07 2.7784872147677903e-05 0.0000000000000000e+00  -1.1676141894222700e-05 1.2383131873962674e-05 0.0000000000000000e+00  -1.5426792948219331e-05 -8.2532665161789183e-06 0.0000000000000000e+00  -8.9349711354969729e-06 -3.0443660705852045e-05 0.0000000000000000e+00  5.6954245192967167e-06 -4.2007781527632343e-05 0.0000000000000000e+00  9.8169643614522919e-06 -3.8855251225962573e-05 0.0000000000000000e+00  1.0133132891718762e-05 -2.9863316467987014e-05 0.0000000000000000e+00  6.3439316133254586e-06 -1.6196568521099906e-05 0.0000000000000000e+00  0.0000000000000000e+00 0.0000000000000000e+00 0.0000000000000000e+00  0.0000000000000000e+00 0.0000000000000000e+00 0.0000000000000000e+00  4.9199057816016835e-07 -2.4060607051760632e-05 0.0000000000000000e+00  7.4417862452954862e-06 -4.3693664043983087e-05 0.0000000000000000e+00  2.5715033260112960e-05 -5.4390126922535788e-05 0.0000000000000000e+00  5.6698108915032068e-05 -5.1888237294798464e-05 0.0000000000000000e+00  8.1815383814428660e-05 -3.4227156724950071e-05 0.0000000000000000e+00  8.9642207868793244e-05 5.8707756964856342e-06 0.0000000000000000e+00  7.6941515913254725e-05 4.8764391402675803e-05 0.0000000000000000e+00  5.5142029508750778e-05 7.2673040968792107e-05 0.0000000000000000e+00  3.2441544841640706e-05 7.5912035898047868e-05 0.0000000000000000e+00  1.0338323923034103e-05 6.5361957952847106e-05 0.0000000000000000e+00  -8.8455803651992504e-06 3.7525122653084165e-05 0.0000000000000000e+00  -1.9915616161412442e-05 -1.0117086012825966e-05 0.0000000000000000e+00  -1.6549164616416219e-05 -6.1113278279486608e-05 0.0000000000000000e+00  1.0142496555811470e-05 -9.1086080546180296e-05 0.0000000000000000e+00  2.9616747225957978e-05 -8.7805607833644640e-05 0.0000000000000000e+00  3.2682729599387365e-05 -6.7780429200385469e-05 0.0000000000000000e+00  2.0668425380545661e-05 -3.6631420444739708e-05 0.0000000000000000e+00  0.0000000000000000e+00 0.0000000000000000e+00 0.0000000000000000e+00  0.0000000000000000e+00 0.0000000000000000e+00 0.0000000000000000e+00  -3.1203321951357791e-05 -5.8075415427049561e-05 0.0000000000000000e+00  -4.5315287306360257e-05 -1.1021096403119143e-04 0.0000000000000000e+00  -2.6085748025188274e-05 -1.4853064606997192e-04 0.0000000000000000e+00  3.9722880314384346e-05 -1.6042663697416832e-04 0.0000000000000000e+00  9.7536228547089087e-05 -6.8808379408479944e-05 0.0000000000000000e+00  8.2582000956917694e-05 4.0447460956528360e-05 0.0000000000000000e+00  5.5480002106153696e-05 9.4427441986052449e-05 0.0000000000000000e+00  4.8210235010010442e-05 1.0102817335269302e-04 0.0000000000000000e+00  5.6178613986774729e-05 1.0335919714677939e-04 0.0000000000000000e+00  5.8698320771178092e-05 1.1087692777981355e-04 0.0000000000000000e+00  4.5444600032105912e-05 8.1529384659074217e-05 0.0000000000000000e+00  4.8895956447106001e-06 3.4088095734530800e-05 0.0000000000000000e+00  -1.6708966385974417e-05 -8.6845576755657135e-05 0.0000000000000000e+00  4.8552874060523014e-05 -2.2478121119659297e-04 0.0000000000000000e+00  1.1502646808088480e-04 -2.0369345723021288e-04 0.0000000000000000e+00  1.1552682149759032e-04 -1.5016098094174459e-04 0.0000000000000000e+00  6.9586576583876382e-05 -7.8972121135541013e-05 0.0000000000000000e+00  0.0000000000000000e+00 0.0000000000000000e+00 0.0000000000000000e+00  0.0000000000000000e+00 0.0000000000000000e+00 0.0000000000000000e+00  -1.3114449672399679e-04 -1.1575483450757333e-04 0.0000000000000000e+00  -2.3136794335501377e-04 -2.3184213721905573e-04 0.0000000000000000e+00  -2.6407148270623165e-04 -3.4811567529539748e-04 0.0000000000000000e+00  -1.7872848932530156e-04 -4.6319969374948377e-04 0.0000000000000000e+00  -8.2132124339644232e-05 -1.5405310077159313e-04 0.0000000000000000e+00  -1.0514811515747807e-04 1.1139065276292043e-04 0.0000000000000000e+00  -7.5309273265562841e-05 6.5373211638183540e-05 0.0000000000000000e+00  3.6155646882199761e-06 5.0469141137956554e-05 0.0000000000000000e+00  6.2194030799021178e-05 4.6516130774696742e-05 0.0000000000000000e+00  1.2270080551370749e-04 4.6452501198649811e-05 0.0000000000000000e+00  2.1121722847518211e-04 4.2978326529958821e-05 0.0000000000000000e+00  2.7639785956341128e-04 1.6777545484820641e-04 0.0000000000000000e+00  2.4743123014845254e-04 -1.5445503115945927e-04 0.0000000000000000e+00  3.8752586153250007e-04 -5.8459896440151294e-04 0.0000000000000000e+00  4.6400918811956299e-04 -4.4911045277363495e-04 0.0000000000000000e+00  3.8392768386555110e-04 -3.0302838680125883e-04 0.0000000000000000e+00  2.1295519819872287e-04 -1.5235920266102977e-04 0.0000000000000000e+00  0.0000000000000000e+00 0.0000000000000000e+00 0.0000000000000000e+00  0.0000000000000000e+00 0.0000000000000000e+00 0.0000000000000000e+00  -3.5419788510074692e-04 -1.7189365132980875e-04 0.0000000000000000e+00  -6.8655272628421115e-04 -3.5236779371850766e-04 0.0000000000000000e+00  -9.7220838843199752e-04 -5.5160233633370524e-04 0.0000000000000000e+00  -1.1796442242497549e-03 -7.8362229706588511e-04 0.0000000000000000e+00  -1.1245740967787974e-03 -2.0173205644907505e-04 0.0000000000000000e+00  -1.1723584411910549e-03 3.7318753915565337e-04 0.0000000000000000e+00  -7.1450797250957241e-04 3.1991214772449832e-04 0.0000000000000000e+00  -2.0419314637520487e-04 2.9956738514164328e-04 0.0000000000000000e+00  3.2234023374785306e-04 3.1221665795584376e-04 0.0000000000000000e+00  8.4454639697635538e-04 3.6078048160103634e-04 0.0000000000000000e+00  1.3411907797832058e-03 4.5445047917252584e-04 0.0000000000000000e+00  1.7735295123959465e-03 6.1430968520882658e-04 0.0000000000000000e+00  1.6925595131428411e-03 -2.0664173310575094e-04 0.0000000000000000e+00  1.7463319888652432e-03 -1.0364897011406310e-03 0.0000000000000000e+00  1.4375833995546212e-03 -7.3629022235066437e-04 0.0000000000000000e+00  1.0150568780346743e-03 -4.7387726053031660e-04 0.0000000000000000e+00  5.2374782590134132e-04 -2.3228076987229752e-04 0.0000000000000000e+00  0.0000000000000000e+00 0.0000000000000000e+00 0.0000000000000000e+00  0.0000000000000000e+00 0.0000000000000000e+00 0.0000000000000000e+00  -6.6342467842000162e-04 -1.9346567278279476e-04 0.0000000000000000e+00  -1.3265929512888319e-03 -3.9742432069883837e-04 0.0000000000000000e+00  -1.9898728907137746e-03 -6.2331545034178062e-04 0.0000000000000000e+00  -2.6546504727089329e-03 -8.8448350814887859e-04 0.0000000000000000e+00  -2.6587156580429338e-03 -1.8673987251801644e-04 0.0000000000000000e+00  -2.6656739343565859e-03 5.1807790894681835e-04 0.0000000000000000e+00  -1.5658599463663852e-03 4.4316350309947126e-04 0.0000000000000000e+00  -4.7773459522621381e-04 4.1709394993009785e-04 0.0000000000000000e+00  6.0076102921110392e-04 4.3463634669764191e-04 0.0000000000000000e+00  1.6710711213332706e-03 4.9522690094869811e-04 0.0000000000000000e+00  2.7326470433179147e-03 6.0195190738442507e-04 0.0000000000000000e+00  3.7812142620573404e-03 7.5990610807164481e-04 0.0000000000000000e+00  3.7685629727329723e-03 -2.3150078313495686e-04 0.0000000000000000e+00  3.7890804458279078e-03 -1.2195769336388891e-03 0.0000000000000000e+00  2.8625747115431236e-03 -8.7110473613056876e-04 0.0000000000000000e+00  1.9191268244582618e-03 -5.6072956502954663e-04 0.0000000000000000e+00  9.6293365046937337e-04 -2.7453106694581446e-04 0.0000000000000000e+00  0.0000000000000000e+00 0.0000000000000000e+00 0.0000000000000000e+00  0.0000000000000000e+00 0.0000000000000000e+00 0.0000000000000000e+00  -9.7202526841039445e-04 -1.7289507776375413e-04 0.0000000000000000e+00  -1.9634337520776381e-03 -3.5438555903461209e-04 0.0000000000000000e+00  -2.9970764942621208e-03 -5.5336134913728998e-04 0.0000000000000000e+00  -4.0970828441187256e-03 -7.7921110639548924e-04 0.0000000000000000e+00  -4.1388677732829672e-03 -1.7777481032238087e-04 0.0000000000000000e+00  -4.0986016626958109e-03 4.1998925137200856e-04 0.0000000000000000e+00  -2.3749705272428797e-03 3.7249972589087664e-04 0.0000000000000000e+00  -7.1451479347322568e-04 3.6137953963975025e-04 0.0000000000000000e+00  9.1243840751333136e-04 3.8598594178932566e-04 0.0000000000000000e+00  2.5349409232579972e-03 4.4685522712049273e-04 0.0000000000000000e+00  4.1815800598990942e-03 5.4570087127338805e-04 0.0000000000000000e+00  5.8822902436897430e-03 6.8523466275349993e-04 0.0000000000000000e+00  5.9179244615029788e-03 -2.5114597055888547e-04 0.0000000000000000e+00  5.8835528998658175e-03 -1.1890700429835663e-03 0.0000000000000000e+00  4.3488737393507070e-03 -8.5258754452089379e-04 0.0000000000000000e+00  2.8702268801290521e-03 -5.5022345509222114e-04 0.0000000000000000e+00  1.4267216218773148e-03 -2.6976154944675728e-04 0.0000000000000000e+00  0.0000000000000000e+00 0.0000000000000000e+00 0.0000000000000000e+00  0.0000000000000000e+00 0.0000000000000000e+00 0.0000000000000000e+00  -1.1972223127790585e-03 -1.1788677046472096e-04 0.0000000000000000e+00  -2.4294503063412793e-03 -2.4123281790685867e-04 0.0000000000000000e+00  -3.7336014195537720e-03 -3.7556427215803357e-04 0.0000000000000000e+00  -5.1486511670062888e-03 -5.2659138891212633e-04 0.0000000000000000e+00  -5.2169208713679291e-03 -1.7383561954380030e-04 0.0000000000000000e+00  -5.1486138798566630e-03 1.7742283143603441e-04 0.0000000000000000e+00  -2.9325007928456531e-03 1.5873166966742238e-04 0.0000000000000000e+00  -8.1995242394058217e-04 1.6415847529972823e-04 0.0000000000000000e+00  1.2422054114209176e-03 1.9368017904012721e-04 0.0000000000000000e+00  3.3054935114433933e-03 2.4796858287678703e-04 0.0000000000000000e+00  5.4209450323232378e-03 3.2796034211935436e-04 0.0000000000000000e+00  7.6421216049177140e-03 4.3493715796566847e-04 0.0000000000000000e+00  7.7117521382313410e-03 -2.6564796843818304e-04 0.0000000000000000e+00  7.6433224789140873e-03 -9.6582856907812269e-04 0.0000000000000000e+00  5.6033241051110872e-03 -6.9691877407039929e-04 0.0000000000000000e+00  3.6758815744369518e-03 -4.5168717345975376e-04 0.0000000000000000e+00  1.8205454801205308e-03 -2.2201853633928669e-04 0.0000000000000000e+00  0.0000000000000000e+00 0.0000000000000000e+00 0.0000000000000000e+00  0.0000000000000000e+00 0.0000000000000000e+00 0.0000000000000000e+00  -1.2807229264370165e-03 -4.1044307018579731e-05 0.0000000000000000e+00  -2.6043841866549193e-03 -8.4044114882728232e-05 0.0000000000000000e+00  -4.0156375743511125e-03 -1.3092417966972802e-04 0.0000000000000000e+00  -5.5625733553341956e-03 -1.8356577892735700e-04 0.0000000000000000e+00  -5.6443661993160147e-03 -1.7162371766197291e-04 0.0000000000000000e+00  -5.5598651337975709e-03 -1.6152268089400003e-04 0.0000000000000000e+00  -3.0829137871083811e-03 -1.5046528185107085e-04 0.0000000000000000e+00  -7.2907720433723622e-04 -1.2900296566651016e-04 0.0000000000000000e+00  1.5676378164787969e-03 -9.6575510188257489e-05 0.0000000000000000e+00  3.8710446603474448e-03 -5.2628017265647135e-05 0.0000000000000000e+00  6.2450009476714644e-03 3.3573400161949357e-06 0.0000000000000000e+00  8.7561557859532103e-03 7.1833485008214622e-05 0.0000000000000000e+00  8.8460510472506658e-03 -2.7096272355669175e-04 0.0000000000000000e+00  8.7567661378441276e-03 -6.1374755352988110e-04 0.0000000000000000e+00  6.3993442222986625e-03 -4.4626660376451236e-04 0.0000000000000000e+00  4.1880547464616270e-03 -2.9083832994005593e-04 0.0000000000000000e+00  2.0709367519011713e-03 -1.4341563125055260e-04 0.0000000000000000e+00  -5.8382964296210646e-10 0.0000000000000000e+00 0.0000000000000000e+00  0.0000000000000000e+00 0.0000000000000000e+00 0.0000000000000000e+00  -1.1908356999393369e-03 4.3626778351796927e-05 0.0000000000000000e+00  -2.4254248192761246e-03 8.8725298257349728e-05 0.0000000000000000e+00  -3.7489773973885272e-03 1.3687356028119595e-04 0.0000000000000000e+00  -5.2103586448443437e-03 1.8987445960100228e-04 0.0000000000000000e+00  -5.2929729985733169e-03 -1.7353116949532534e-04 0.0000000000000000e+00  -5.2067096817391819e-03 -5.3914796022441638e-04 0.0000000000000000e+00  -2.7485914468011927e-03 -5.0081778718150973e-04 0.0000000000000000e+00  -4.1368856553346126e-04 -4.6553850656362209e-04 0.0000000000000000e+00  1.8665106015836536e-03 -4.3241291993338041e-04 0.0000000000000000e+00  4.1583615662017150e-03 -4.0088687371351667e-04 0.0000000000000000e+00  6.5284756494006701e-03 -3.7074948814992421e-04 0.0000000000000000e+00  9.0461766072102018e-03 -3.4214808970299668e-04 0.0000000000000000e+00  9.1410984508851958e-03 -2.6964929524570940e-04 0.0000000000000000e+00  9.0445173231358082e-03 -1.9770470555393425e-04 0.0000000000000000e+00  6.6034856918269005e-03 -1.4760826043736262e-04 0.0000000000000000e+00  4.3183803889196622e-03 -9.7995229849468207e-05 0.0000000000000000e+00  2.1343485136796517e-03 -4.8854529865657776e-05 0.0000000000000000e+00  0.0000000000000000e+00 0.0000000000000000e+00 0.0000000000000000e+00  0.0000000000000000e+00 0.0000000000000000e+00 0.0000000000000000e+00  -9.2411680731307717e-04 1.2246226158276784e-04 0.0000000000000000e+00  -1.8868020025304866e-03 2.4937184909767235e-04 0.0000000000000000e+00  -2.9246353752439840e-03 3.8536055315200056e-04 0.0000000000000000e+00  -4.0836568395845440e-03 5.3541595775375935e-04 0.0000000000000000e+00  -4.1555705269107849e-03 -1.8101654685325172e-04 0.0000000000000000e+00  -4.0806562766752281e-03 -8.9977750043290913e-04 0.0000000000000000e+00  -1.9291827996624378e-03 -8.3918743678162001e-04 0.0000000000000000e+00  1.1698590627486297e-04 -7.9366084213755616e-04 0.0000000000000000e+00  2.1190756864570720e-03 -7.6204669647605299e-04 0.0000000000000000e+00  4.1367953711883331e-03 -7.4378939982510761e-04 0.0000000000000000e+00  6.2301430463632861e-03 -7.3892714806787015e-04 0.0000000000000000e+00  8.4615253414197129e-03 -7.4810391311259732e-04 0.0000000000000000e+00  8.5473512676207796e-03 -2.6400024976171909e-04 0.0000000000000000e+00  8.4562025103770266e-03 2.1912188855841157e-04 0.0000000000000000e+00  6.1760696380603686e-03 1.5293375257769497e-04 0.0000000000000000e+00  4.0397594254613298e-03 9.6693179087230428e-05 0.0000000000000000e+00  1.9968866943474938e-03 4.6800489259311199e-05 0.0000000000000000e+00  0.0000000000000000e+00 0.0000000000000000e+00 0.0000000000000000e+00  0.0000000000000000e+00 0.0000000000000000e+00 0.0000000000000000e+00  -5.0317232204108908e-04 1.8356273809586396e-04 0.0000000000000000e+00  -1.0329990081072774e-03 3.7382063190729686e-04 0.0000000000000000e+00  -1.6170932618063815e-03 5.7768925453031267e-04 0.0000000000000000e+00  -2.2852365290450330e-03 8.0255113884386206e-04 0.0000000000000000e+00  -2.3366223498472814e-03 -1.9456661747033207e-04 0.0000000000000000e+00  -2.2838007935567996e-03 -1.1938419860640550e-03 0.0000000000000000e+00  -6.9512633093504164e-04 -1.1179983982692961e-03 0.0000000000000000e+00  8.2051931660055645e-04 -1.0668135342350510e-03 0.0000000000000000e+00  2.3094860616518129e-03 -1.0389292690804620e-03 0.0000000000000000e+00  3.8169563305094313e-03 -1.0337888668447627e-03 0.0000000000000000e+00  5.3882849706572162e-03 -1.0516332577745647e-03 0.0000000000000000e+00  7.0712121336266968e-03 -1.0935124497724118e-03 0.0000000000000000e+00  7.1362711247181269e-03 -2.5635761551247923e-04 0.0000000000000000e+00  7.0616428852696145e-03 5.7954301970664416e-04 0.0000000000000000e+00  5.1657320534477594e-03 4.1363800096345341e-04 0.0000000000000000e+00  3.3827718344833311e-03 2.6597448154149736e-04 0.0000000000000000e+00  1.6733028523532492e-03 1.3009378717140137e-04 0.0000000000000000e+00  0.0000000000000000e+00 0.0000000000000000e+00 0.0000000000000000e+00  0.0000000000000000e+00 0.0000000000000000e+00 0.0000000000000000e+00  2.7069690912762198e-05 2.1796575348891005e-04 0.0000000000000000e+00  4.2634277640903051e-05 4.4391951741339265e-04 0.0000000000000000e+00  3.4501432642748139e-05 6.8610929503362032e-04 0.0000000000000000e+00  -1.0371950848840990e-05 9.5332929351203135e-04 0.0000000000000000e+00  -3.3879705310214257e-05 -2.1316706772130033e-04 0.0000000000000000e+00  -1.0425455824336561e-05 -1.3813546461391348e-03 0.0000000000000000e+00  8.2355978485960674e-04 -1.2989646172224133e-03 0.0000000000000000e+00  1.6272717821607572e-03 -1.2475535615504277e-03 0.0000000000000000e+00  2.4262112727108163e-03 -1.2256256583002235e-03 0.0000000000000000e+00  3.2452996198727682e-03 -1.2326377027461449e-03 0.0000000000000000e+00  4.1097788527175291e-03 -1.2689912431318813e-03 0.0000000000000000e+00  5.0461183781941457e-03 -1.3360434202498669e-03 0.0000000000000000e+00  5.0823175846151257e-03 -2.4825252436314966e-04 0.0000000000000000e+00  5.0329957244365838e-03 8.3824947884957534e-04 0.000000