<?xml version="1.0"?>
<VTKFile type="UnstructuredGrid"  version="0.1"  >
<UnstructuredGrid>
<Piece  NumberOfPoints="589" NumberOfCells="1080">
<Points>
<DataArray  type="Float64"  NumberOfComponents="3"  format="ascii">-9 0 0  -8 0 0  -7 0 0  -6 0 0  -5 0 0  -4 0 0  -3 0 0  -2 0 0  -1 0 0  0 0 0  1 0 0  2 0 0  3 0 0  4 0 0  5 0 0  6 0 0  7 0 0  8 0 0  9 0 0  -9 2 0  -8.000006145318686 1.999990789165286 0  -7.000012872647686 1.999982719167269 0  -6.000021573999644 1.999976717217455 0  -5.000035451385505 1.999973193185737 0  -4.000020966359866 1.999979972167439 0  -3.000006102651887 1.999986423744605 0  -1.999998873545134 1.999992490445222 0  -0.9999977049052876 1.999997290715501 0  -3.279740867581801e-07 1.999999412701772 0  0.9999967573557887 1.999997997685442 0  1.999996943652622 1.999993405313377 0  3.000002498628464 1.999987793575871 0  4.000014097517609 1.99998185737142 0  5.0000308802782 1.999979644840898 0  6.000018557351976 1.999980360147444 0  7.000011019243516 1.99998479784868 0  8.000005261791777 1.999991756458185 0  9 2 0  -9 4 0  -8.00000996248137 3.999977015465731 0  -7.000017849225052 3.999957166501449 0  -6.000022443813392 3.999943522958534 0  -5.000023990139007 3.999939008080532 0  -4.000002891946548 3.999942256028163 0  -2.999988763455154 3.99996048339588 0  -1.999985115253478 3.999984183317757 0  -0.999990561216995 4.000003262060733 0  -9.56503432878679e-07 4.000010995564511 0  0.9999884164630035 4.000005108989785 0  1.999982179425114 3.999989093687659 0  2.999984951483202 3.99996743271506 0  3.999998139427925 3.999945741229497 0  5.000018397278568 3.999938790751303 0  6.00001797534783 3.999945831021104 0  7.000014915748162 3.999959512563728 0  8.000008540755298 3.999978373706614 0  9 4 0  -9 6 0  -8.000022081977994 5.999950701854535 0  -7.000035994367497 5.999906794341618 0  -6.000035506677365 5.999873816151673 0  -5.0000188394636 5.999857067717005 0  -3.999977637520758 5.999884164933397 0  -2.999958948233957 5.999940598798383 0  -1.999966473946477 5.999999720651616 0  -0.9999850553968578 6.000032566141765 0  -3.821726909197884e-06 6.000039198412762 0  0.9999793320132816 6.000028678149628 0  1.999966488372927 5.999999499812229 0  2.9999616160933 5.999950191796098 0  3.999971212685073 5.999899137332977 0  5.000006119445878 5.999874040558237 0  6.0000279439688 5.999884738811054 0  7.000032073188441 5.999913511168871 0  8.00002048184686 5.99995393252244 0  9 6 0  -9 8 0  -8.000066872994758 7.999902836653604 0  -7.000111735639848 7.999812716654052 0  -6.000113285195519 7.999739201925525 0  -5.000053340255458 7.999698040855112 0  -3.999973452250203 7.999822838235071 0  -2.999988445761407 7.999969425360915 0  -2.00001868939083 8.000040742006174 0  -1.00002142753912 8.000048707560198 0  -3.693222684443171e-06 8.000051002176063 0  1.000009597985282 8.00005817088074 0  2.000004132941738 8.000028663578178 0  2.999969535865645 7.999978447693844 0  3.999957782255253 7.999853698107005 0  5.00003579538832 7.999712894389932 0  6.000108685417491 7.99975136625399 0  7.000112103308624 7.999820926043541 0  8.000067976800382 7.999906916069815 0  9 8 0  -9 10 0  -8.000199649935494 9.999826842710785 0  -7.000360669466244 9.999652286971298 0  -6.00043698534769 9.999475287092146 0  -5.000364464698379 9.999295631008222 0  -4.000237572534397 9.999699098974219 0  -3.000258848662612 10.00004592256056 0  -2.00020781664317 9.999985670792929 0  -1.000096548290347 9.999966339734643 0  -1.476573051427432e-05 9.999961627073716 0  1.000066263968354 9.999962039905753 0  2.000174065205558 9.999960063632056 0  3.0002689646334 10.00008429251912 0  4.000257031751374 9.999757998616195 0  5.000400252244109 9.999327317993741 0  6.000467197693464 9.999493732598033 0  7.000382236901828 9.99966267050041 0  8.000210824573895 9.999831555953012 0  9 10 0  -9 12 0  -8.000486690814226 11.99975653820721 0  -7.000947997174526 11.9995017953123 0  -6.001355218522741 11.99922227861041 0  -5.001672763038266 11.99889916730985 0  -4.001607606575336 11.99963590523306 0  -3.001666723170799 12.00036535568256 0  -2.001147739526008 12.00027666139892 0  -1.000569517733703 12.00022832307938 0  3.128266016766293e-05 12.00021831833624 0  1.000638315327798 12.00024812411401 0  2.001237849092719 12.00032652619663 0  3.00180281098191 12.00047555843054 0  4.001740717163469 11.9996920133431 0  5.001781976464146 11.99890202788635 0  6.001432756292828 11.99922621401874 0  7.000997887434666 11.99950475257447 0  8.000511144705859 11.99975804058273 0  9 12 0  -9 14 0  -8.000874736532156 13.99973146655314 0  -7.001750811545333 13.99945058659565 0  -6.002630698992728 13.99914392273805 0  -5.00351983354191 13.99879589807633 0  -4.003528720400877 13.99965856538706 0  -3.003534495890672 14.00053213933117 0  -2.00232561944004 14.00040642718275 0  -1.00113324530222 14.00033714817734 0  5.252038450116092e-05 14.00031592867864 0  1.001241132997282 14.00034002037771 0  2.002441390257482 14.00041075174554 0  3.003660212791355 14.00053198103776 0  4.003669846889172 13.99966178923091 0  5.003675147331708 13.99879702085788 0  6.002739639967204 13.99914170083493 0  7.00182029054828 13.99944808490691 0  8.000908610028011 13.9997299752868 0  9 14 0  -9 16 0  -8.001256699844541 15.99975585341458 0  -7.002537176436069 15.99950266668996 0  -6.003867260121763 15.99923124039392 0  -5.005277001276198 15.99893220596838 0  -4.005326882954074 15.99967028201024 0  -3.005280025932904 16.00040447063424 0  -2.003439370681308 16.00031104333844 0  -1.001671366695926 16.0002542045875 0  6.239526314552894e-05 16.00023271761399 0  1.001798237391782 16.00024577449672 0  2.00357250455931 16.00029340063702 0  3.00542386850955 16.00037627136713 0  4.005476878989191 15.99963959236863 0  5.005430614453926 15.99890234488926 0  6.003979744144888 15.99921065403329 0  7.002610717537079 15.99948958978711 0  8.001293018286168 15.99974947665874 0  9 16 0  -9 18 0  -8.001542788173822 17.99981642008682 0  -7.003123733713253 17.99962778125086 0  -6.004782977039842 17.99942911369183 0  -5.00656461540665 17.99921565028097 0  -4.006640218080605 17.99967335847779 0  -3.006567640625001 18.0001304777353 0  -2.004264924097811 18.00006978465711 0  -1.002073650823345 18.0000303512763 0  6.389960743836312e-05 18.00001182240569 0  1.002202655370049 18.00001373163607 0  2.004397467590596 18.00003553062218 0  3.006705789332357 18.00007648094169 0  4.006782787262313 17.99962293469599 0  5.006709490710922 17.9991707230175 0  6.004890018882202 17.99939728215698 0  7.00319429496735 17.99960740172425 0  8.00157782389099 17.99980647271369 0  9 18 0  -9 20 0  -8.001675533363905 19.99989721078157 0  -7.003395688527527 19.99979302964261 0  -6.005206793912905 19.99968621256178 0  -5.007158593200467 19.99957580806732 0  -4.00724501928859 19.99967377100748 0  -3.007159938682061 19.99977109693486 0  -2.004647421595685 19.99974384219069 0  -1.002262337372399 19.99972324603427 0  6.052349977089688e-05 19.9997095390493 0  1.002384008312021 19.99970248177749 0  2.004770930299326 19.99970138100807 0  3.007286405281698 19.99970504868442 0  4.007373117918777 19.99961460972026 0  5.007287574419708 19.99952509932739 0  6.005302775752445 19.99964972013749 0  7.003459306616238 19.99976943335237 0  8.001707229301362 19.99988563179953 0  8.999999999995341 19.99999999999203 0  -9 22 0  -8.001629131351102 21.99998355571792 0  -7.003302438446058 21.99996881891878 0  -6.005065485946266 21.99995766411255 0  -5.006966607662731 21.99995230322944 0  -4.00705131105908 21.99967063168041 0  -3.006967430710351 21.99938826490397 0  -2.004522941306912 21.99939138501814 0  -1.002203430542564 21.99938871426622 0  5.464413042636987e-05 21.99938078665854 0  1.002312894687821 21.99936752559939 0  2.00463290894352 21.99934825532766 0  3.007078158537595 21.99932168944224 0  4.007161573592632 21.99961193392613 0  5.007076327662704 21.99990272963241 0  6.005147783277752 21.99992178115961 0  7.003357291692864 21.99994551065175 0  8.001656549714305 21.99997208549052 0  9 22 0  -9 24 0  -8.001405348476531 24.00006307131466 0  -7.002848792101818 24.00013027959273 0  -6.004369495044542 24.00020593453799 0  -5.006008706385493 24.00029469945576 0  -4.006081773616133 23.99966425412391 0  -3.006009860817176 23.99903319566086 0  -2.003901218715571 23.99906198616457 0  -1.001900013241904 23.99907511037316 0  4.812303558078848e-05 23.99907326710892 0  1.00199608987945 23.99905649731869 0  2.003996767174239 23.99902418717647 0  3.006104464226771 23.99897506303559 0  4.006174226087003 23.99961352069727 0  5.006099588597293 24.00025231673615 0  6.004438243362451 24.00017511567943 0  7.002894888596873 24.00011019496354 0  8.001428469952172 24.0000531675236 0  9 24 0  -9 26 0  -8.001028415500736 26.00012605297762 0  -7.002084583734914 26.00025796333748 0  -6.003197008913667 26.00040176354367 0  -5.004395577714607 26.0005638467915 0  -4.004449462969043 25.99965516140667 0  -3.004397659413781 25.99874600917432 0  -2.002852322229864 25.9987950116452 0  -1.001385485390303 25.99882113533436 0  4.23890563227144e-05 25.99882520906708 0  1.001469838830829 25.99880737872415 0  2.002935381014055 25.99876711142007 0  3.004478496830821 25.99870318918856 0  4.004526938815201 25.99961805085021 0  5.004470740845863 26.00053308205807 0  6.003254415040285 26.00037933066599 0  7.00212333048625 26.00024331308451 0  8.001047925025363 26.00011881918786 0  9 26 0  -9 28 0  -8.000539576427148 28.00016562102748 0  -7.001093715368264 28.00033809671382 0  -6.001677399956599 28.00052445931075 0  -5.002306285573193 28.0007321012801 0  -4.002335848036656 27.99964424078945 0  -3.002309541090745 27.99855614296067 0  -2.001491944147079 27.99861929869013 0  -1.000716248569353 27.99865510227137 0  3.84663862557352e-05 27.99866449943531 0  1.000792591556157 27.99864773941083 0  2.001566495425144 27.99860437523044 0  3.002381032284157 27.99853326215919 0  4.002403249056547 27.99962454556862 0  5.002370937667578 28.00071591229362 0  6.001727218570017 28.00051263012021 0  7.001127545695587 28.00033035896075 0  8.000556671753074 28.
[...]
<PointData  Vectors="f_44-2"> 
<DataArray  type="Float64"  Name="f_44-2"  NumberOfComponents="3" format="ascii">0.0000000000000000e+00 0.0000000000000000e+00 0.0000000000000000e+00  0.0000000000000000e+00 0.0000000000000000e+00 0.0000000000000000e+00  0.0000000000000000e+00 0.0000000000000000e+00 0.0000000000000000e+00  0.0000000000000000e+00 0.0000000000000000e+00 0.0000000000000000e+00  0.0000000000000000e+00 0.0000000000000000e+00 0.0000000000000000e+00  0.0000000000000000e+00 0.0000000000000000e+00 0.0000000000000000e+00  0.0000000000000000e+00 0.0000000000000000e+00 0.0000000000000000e+00  0.0000000000000000e+00 0.0000000000000000e+00 0.0000000000000000e+00  0.0000000000000000e+00 0.0000000000000000e+00 0.0000000000000000e+00  0.0000000000000000e+00 0.0000000000000000e+00 0.0000000000000000e+00  0.0000000000000000e+00 0.0000000000000000e+00 0.0000000000000000e+00  0.0000000000000000e+00 0.0000000000000000e+00 0.0000000000000000e+00  0.0000000000000000e+00 0.0000000000000000e+00 0.0000000000000000e+00  0.0000000000000000e+00 0.0000000000000000e+00 0.0000000000000000e+00  0.0000000000000000e+00 0.0000000000000000e+00 0.0000000000000000e+00  0.0000000000000000e+00 0.0000000000000000e+00 0.0000000000000000e+00  0.0000000000000000e+00 0.0000000000000000e+00 0.0000000000000000e+00  0.0000000000000000e+00 0.0000000000000000e+00 0.0000000000000000e+00  0.0000000000000000e+00 0.0000000000000000e+00 0.0000000000000000e+00  0.0000000000000000e+00 0.0000000000000000e+00 0.0000000000000000e+00  -3.5706924002266221e-05 -5.1980157387075635e-05 0.0000000000000000e+00  -7.5130857939506988e-05 -9.7834855750306742e-05 0.0000000000000000e+00  -1.2658344926510406e-04 -1.3262724208102367e-04 0.0000000000000000e+00  -2.0870464267033236e-04 -1.5431055481603595e-04 0.0000000000000000e+00  -1.2662070057638193e-04 -1.1458645843893122e-04 0.0000000000000000e+00  -4.1410096990170193e-05 -7.8383804885971009e-05 0.0000000000000000e+00  1.2169327199643918e-06 -4.5064494745133019e-05 0.0000000000000000e+00  1.0554507816595163e-05 -1.8808951865095171e-05 0.0000000000000000e+00  -8.3842234903515987e-07 -7.3807614219332146e-06 0.0000000000000000e+00  -1.3635765397247990e-05 -1.5479960141910800e-05 0.0000000000000000e+00  -9.0627889952401786e-06 -4.1249978282053928e-05 0.0000000000000000e+00  2.5626458931650557e-05 -7.3077971369784161e-05 0.0000000000000000e+00  9.4650288822765207e-05 -1.0771741531917548e-04 0.0000000000000000e+00  1.9416077969331081e-04 -1.2345647996636107e-04 0.0000000000000000e+00  1.1769741310359468e-04 -1.1674285269460377e-04 0.0000000000000000e+00  7.0015919260679892e-05 -8.9426358306638016e-05 0.0000000000000000e+00  3.3380024322822926e-05 -4.8239098284151153e-05 0.0000000000000000e+00  0.0000000000000000e+00 0.0000000000000000e+00 0.0000000000000000e+00  0.0000000000000000e+00 0.0000000000000000e+00 0.0000000000000000e+00  -5.6544476186241960e-05 -1.2845665249882788e-04 0.0000000000000000e+00  -1.0214728555250766e-04 -2.3991484924873349e-04 0.0000000000000000e+00  -1.3049176678220925e-04 -3.1768855121950271e-04 0.0000000000000000e+00  -1.4305193228031005e-04 -3.4577612631879945e-04 0.0000000000000000e+00  -2.5083472393405538e-05 -3.2829780545262605e-04 0.0000000000000000e+00  5.5290746819023663e-05 -2.2871522002129588e-04 0.0000000000000000e+00  7.8878640733222256e-05 -9.9009762434683205e-05 0.0000000000000000e+00  5.3182179357985549e-05 5.0959576579208976e-06 0.0000000000000000e+00  5.4759818785005288e-07 4.6906650015128828e-05 0.0000000000000000e+00  -5.3243647769860238e-05 1.3756223927731025e-05 0.0000000000000000e+00  -8.2752101796229550e-05 -7.5546812293330551e-05 0.0000000000000000e+00  -6.2523315045781032e-05 -1.9666038786710769e-04 0.0000000000000000e+00  1.5045040704046771e-05 -3.1892892562461337e-04 0.0000000000000000e+00  1.3082700695360474e-04 -3.6166520221956054e-04 0.0000000000000000e+00  1.2026590236609871e-04 -3.1589354516672316e-04 0.0000000000000000e+00  9.5847888563439399e-05 -2.3432987238638224e-04 0.0000000000000000e+00  5.3734206682847619e-05 -1.2467942329605187e-04 0.0000000000000000e+00  0.0000000000000000e+00 0.0000000000000000e+00 0.0000000000000000e+00  0.0000000000000000e+00 0.0000000000000000e+00 0.0000000000000000e+00  -1.2114191537978274e-04 -2.7290030532883125e-04 0.0000000000000000e+00  -1.9819660128657068e-04 -5.1670821488561240e-04 0.0000000000000000e+00  -1.9753765735661217e-04 -7.0147080261514106e-04 0.0000000000000000e+00  -1.0941767823131608e-04 -7.9833515990778022e-04 0.0000000000000000e+00  1.1807772111563150e-04 -6.5194211218054011e-04 0.0000000000000000e+00  2.2329233011215708e-04 -3.4523901170598531e-04 0.0000000000000000e+00  1.8660912861889590e-04 -2.3676196466559237e-05 0.0000000000000000e+00  8.9730355686215923e-05 1.5533496950159570e-04 0.0000000000000000e+00  -8.5217540562076066e-06 1.9131126160076676e-04 0.0000000000000000e+00  -9.6549914987230541e-05 1.3273143318737163e-04 0.0000000000000000e+00  -1.6268557091450058e-04 -2.8852595460593208e-05 0.0000000000000000e+00  -1.8526624438547666e-04 -3.0166653247238429e-04 0.0000000000000000e+00  -1.2859374524587977e-04 -5.8491065964337845e-04 0.0000000000000000e+00  6.7039375776534936e-05 -7.2586863302813757e-04 0.0000000000000000e+00  1.7826190988474966e-04 -6.5818960549523717e-04 0.0000000000000000e+00  1.9245541974489725e-04 -4.9155430490413878e-04 0.0000000000000000e+00  1.2055991298678641e-04 -2.6121068090286691e-04 0.0000000000000000e+00  0.0000000000000000e+00 0.0000000000000000e+00 0.0000000000000000e+00  0.0000000000000000e+00 0.0000000000000000e+00 0.0000000000000000e+00  -3.6188911088170904e-04 -5.3359119738137918e-04 0.0000000000000000e+00  -6.0505430898677741e-04 -1.0295513446419539e-03 0.0000000000000000e+00  -6.1440099998675093e-04 -1.4367162875933846e-03 0.0000000000000000e+00  -2.9058355054662784e-04 -1.6705592343900808e-03 0.0000000000000000e+00  1.4494222809350896e-04 -9.9409776802171523e-04 0.0000000000000000e+00  6.9074944481631532e-05 -1.9963626375472371e-04 0.0000000000000000e+00  -8.9580412024681374e-05 1.8827186555919555e-04 0.0000000000000000e+00  -9.9478889528467986e-05 2.3385719331398124e-04 0.0000000000000000e+00  9.3853598863548942e-07 2.4732524452454157e-04 0.0000000000000000e+00  7.6820918852133554e-05 2.8616989933443127e-04 0.0000000000000000e+00  4.9440776532810589e-05 1.2292957568406341e-04 0.0000000000000000e+00  -1.3699464750716996e-04 -1.5586038198049521e-04 0.0000000000000000e+00  -1.9714985654708576e-04 -8.4330846314968806e-04 0.0000000000000000e+00  2.3445322571333070e-04 -1.6189700926157891e-03 0.0000000000000000e+00  6.2428138783185026e-04 -1.3961299774800139e-03 0.0000000000000000e+00  6.3331179342341649e-04 -1.0034735834622533e-03 0.0000000000000000e+00  3.8195107321072487e-04 -5.2110532096877023e-04 0.0000000000000000e+00  0.0000000000000000e+00 0.0000000000000000e+00 0.0000000000000000e+00  0.0000000000000000e+00 0.0000000000000000e+00 0.0000000000000000e+00  -1.0769172775184723e-03 -9.4431060385943464e-04 0.0000000000000000e+00  -1.9469743030561216e-03 -1.8968086460553332e-03 0.0000000000000000e+00  -2.3632916934468997e-03 -2.8639850523973316e-03 0.0000000000000000e+00  -1.9811562852836487e-03 -3.8481957076779761e-03 0.0000000000000000e+00  -1.2954261591774068e-03 -1.6738492267072045e-03 0.0000000000000000e+00  -1.4000063211196873e-03 1.9555426926237134e-04 0.0000000000000000e+00  -1.1126255845167003e-03 -1.2231095862460714e-04 0.0000000000000000e+00  -5.0407354894577193e-04 -2.2438704030369885e-04 0.0000000000000000e+00  -5.3627919291434182e-05 -2.4933820148221740e-04 0.0000000000000000e+00  3.9380110561579583e-04 -2.4776097722412581e-04 0.0000000000000000e+00  9.8831636662513643e-04 -2.6093324033067851e-04 0.0000000000000000e+00  1.5154146831774795e-03 4.1314403027510941e-04 0.0000000000000000e+00  1.4545447168399649e-03 -1.3766539952970612e-03 0.0000000000000000e+00  2.2389143519036449e-03 -3.7377552681818766e-03 0.0000000000000000e+00  2.5921743599030449e-03 -2.8123185267396292e-03 0.0000000000000000e+00  2.1148975855521828e-03 -1.8736714455878610e-03 0.0000000000000000e+00  1.1651593417608976e-03 -9.3558715234782271e-04 0.0000000000000000e+00  0.0000000000000000e+00 0.0000000000000000e+00 0.0000000000000000e+00  0.0000000000000000e+00 0.0000000000000000e+00 0.0000000000000000e+00  -2.6165444588871585e-03 -1.3212246171097333e-03 0.0000000000000000e+00  -5.0992136818253523e-03 -2.7035726399794839e-03 0.0000000000000000e+00  -7.2969380587348835e-03 -4.2201829284868476e-03 0.0000000000000000e+00  -9.0219749137928230e-03 -5.9730198736806126e-03 0.0000000000000000e+00  -8.6788636101948220e-03 -2.0264456994545086e-03 0.0000000000000000e+00  -8.9921160839522996e-03 1.8795618218325257e-03 0.0000000000000000e+00  -6.1396609344534260e-03 1.4076468056201032e-03 0.0000000000000000e+00  -2.9833064269479356e-03 1.1546167271495992e-03 0.0000000000000000e+00  2.8618520442288964e-04 1.1089531555245023e-03 0.0000000000000000e+00  3.5855460990864216e-03 1.2789263090284329e-03 0.0000000000000000e+00  6.8446711673898399e-03 1.7130618473108466e-03 0.0000000000000000e+00  9.9208435138911037e-03 2.5328364314588787e-03 0.0000000000000000e+00  9.5815831507505000e-03 -1.7489892732359636e-03 0.0000000000000000e+00  9.8026079357856587e-03 -6.0670791688307727e-03 0.0000000000000000e+00  7.8757378463150951e-03 -4.2790108740841841e-03 0.0000000000000000e+00  5.4830875734605032e-03 -2.7401807186639977e-03 0.0000000000000000e+00  2.8080775044890785e-03 -1.3391890789404648e-03 0.0000000000000000e+00  0.0000000000000000e+00 0.0000000000000000e+00 0.0000000000000000e+00  0.0000000000000000e+00 0.0000000000000000e+00 0.0000000000000000e+00  -4.6858166485926412e-03 -1.4524540463219276e-03 0.0000000000000000e+00  -9.3818596956105633e-03 -2.9712266331586427e-03 0.0000000000000000e+00  -1.4105303600807679e-02 -4.6284654193610320e-03 0.0000000000000000e+00  -1.8889609846136253e-02 -6.5077624422056135e-03 0.0000000000000000e+00  -1.8947780727035023e-02 -1.9200070441347352e-03 0.0000000000000000e+00  -1.8972494332742694e-02 2.7261607904662767e-03 0.0000000000000000e+00  -1.2393365675335005e-02 2.0642735947245497e-03 0.0000000000000000e+00  -5.9199356642664442e-03 1.7061033375706373e-03 0.0000000000000000e+00  5.0796865595767774e-04 1.6065521821849432e-03 0.0000000000000000e+00  6.9468783964195023e-03 1.7511696240009417e-03 0.0000000000000000e+00  1.3449226357823649e-02 2.1476796198286259e-03 0.0000000000000000e+00  2.0057299964824891e-02 2.8175883702328320e-03 0.0000000000000000e+00  2.0107836516775571e-02 -1.9277480832791719e-03 0.0000000000000000e+00  2.0131795801556156e-02 -6.6435839171729363e-03 0.0000000000000000e+00  1.5008204069438657e-02 -4.7440982388343772e-03 0.0000000000000000e+00  9.9724134678154490e-03 -3.0525609491878734e-03 0.0000000000000000e+00  4.9780709428750890e-03 -1.4940568296671025e-03 0.0000000000000000e+00  0.0000000000000000e+00 0.0000000000000000e+00 0.0000000000000000e+00  0.0000000000000000e+00 0.0000000000000000e+00 0.0000000000000000e+00  -6.7062068244851244e-03 -1.3176194836862808e-03 0.0000000000000000e+00  -1.3541762683930805e-02 -2.6833427910525967e-03 0.0000000000000000e+00  -2.0649070415882206e-02 -4.1459992655379536e-03 0.0000000000000000e+00  -2.8191989798419744e-02 -5.7552851357817935e-03 0.0000000000000000e+00  -2.8467732520553162e-02 -1.8719259568437711e-03 0.0000000000000000e+00  -2.8210805789173121e-02 1.9906777855401062e-03 0.0000000000000000e+00  -1.8244987621128507e-02 1.5124562360566377e-03 0.0000000000000000e+00  -8.6835192895377226e-03 1.2282888632121933e-03 0.0000000000000000e+00  6.8611445392021775e-04 1.1321522614245445e-03 0.0000000000000000e+00  1.0064294577968157e-02 1.2203159755014685e-03 0.0000000000000000e+00  1.9651309411072904e-02 1.4932975810770708e-03 0.0000000000000000e+00  2.9660421490899137e-02 1.9548443068758072e-03 0.0000000000000000e+00  2.9945890312281051e-02 -2.0595617148850614e-03 0.0000000000000000e+00  2.9691327370865394e-02 -6.0766372868584582e-03 0.0000000000000000e+00  2.1765463907684642e-02 -4.3742356628011176e-03 0.0000000000000000e+00  1.4281397064885589e-02 -2.8305974774428112e-03 0.0000000000000000e+00  7.0742504237386056e-03 -1.3899695023048184e-03 0.0000000000000000e+00  0.0000000000000000e+00 0.0000000000000000e+00 0.0000000000000000e+00  0.0000000000000000e+00 0.0000000000000000e+00 0.0000000000000000e+00  -8.1979435822514286e-03 -9.9016481663989522e-04 0.0000000000000000e+00  -1.6601261641722705e-02 -2.0067737097490489e-03 0.0000000000000000e+00  -2.5426199092598262e-02 -3.0756848837412178e-03 0.0000000000000000e+00  -3.4909863827053390e-02 -4.2215748087639565e-03 0.0000000000000000e+00  -3.5318698622361346e-02 -1.8653173730632554e-03 0.0000000000000000e+00  -3.4926162127383815e-02 4.8814656217546412e-04 0.0000000000000000e+00  -2.2505999355447837e-02 1.9086908330932312e-04 0.0000000000000000e+00  -1.0692139803701756e-02 3.7975727368429410e-06 0.0000000000000000e+00  8.2963899472941153e-04 -7.4061012334541531e-05 0.0000000000000000e+00  1.2357692036196976e-02 -4.4541336638489538e-05 0.0000000000000000e+00  2.4190154268970022e-02 8.9708889878922709e-05 0.0000000000000000e+00  3.6639447802373513e-02 3.2468210003669298e-04 0.0000000000000000e+00  3.7053938376349224e-02 -2.1551586221089580e-03 0.0000000000000000e+00  3.6656240150499515e-02 -4.6273191809628519e-03 0.0000000000000000e+00  2.6728258510162826e-02 -3.3672663441730003e-03 0.0000000000000000e+00  1.7465506461154461e-02 -2.1953533419756168e-03 0.0000000000000000e+00  8.6290177151658216e-03 -1.0827975648630538e-03 0.0000000000000000e+00  0.0000000000000000e+00 0.0000000000000000e+00 0.0000000000000000e+00  0.0000000000000000e+00 0.0000000000000000e+00 0.0000000000000000e+00  -8.8604166781741205e-03 -5.5706941805542338e-04 0.0000000000000000e+00  -1.7958908902283775e-02 -1.1208018123842964e-03 0.0000000000000000e+00  -2.7542548285610764e-02 -1.6969853953141256e-03 0.0000000000000000e+00  -3.7876303275869001e-02 -2.2897457710245083e-03 0.0000000000000000e+00  -3.8338651340309449e-02 -1.8679393936868165e-03 0.0000000000000000e+00  -3.7882800606668501e-02 -1.4497233562259832e-03 0.0000000000000000e+00  -2.4371733806264607e-02 -1.5677776322988715e-03 0.0000000000000000e+00  -1.1545553859427389e-02 -1.6538288068859896e-03 0.0000000000000000e+00  9.4750243487661879e-04 -1.7058258140427219e-03 0.0000000000000000e+00  1.3446319246369983e-02 -1.7244941741868926e-03 0.0000000000000000e+00  2.6289717356540739e-02 -1.7132399471480426e-03 0.0000000000000000e+00  3.9829071787709190e-02 -1.6783739971027792e-03 0.0000000000000000e+00  4.0294597979645026e-02 -2.2002819249016580e-03 0.0000000000000000e+00  3.9833240942583170e-02 -2.7173729263908777e-03 0.0000000000000000e+00  2.9002044623692626e-02 -2.0071847198019667e-03 0.0000000000000000e+00  1.8927982187982584e-02 -1.3225971970784551e-03 0.0000000000000000e+00  9.3437884377247492e-03 -6.5646576700790083e-04 0.0000000000000000e+00  6.7619096492644477e-11 5.5333323027143405e-10 0.0000000000000000e+00  0.0000000000000000e+00 0.0000000000000000e+00 0.0000000000000000e+00  -8.5634168922730982e-03 -9.7475708879359751e-05 0.0000000000000000e+00  -1.7360701482721199e-02 -1.8506840702846644e-04 0.0000000000000000e+00  -2.6632882522759686e-02 -2.5196373585756896e-04 0.0000000000000000e+00  -3.6635295911451156e-02 -2.8543650824070313e-04 0.0000000000000000e+00  -3.7086090862622260e-02 -1.8872502920694340e-03 0.0000000000000000e+00  -3.6641373049978533e-02 -3.4936395417497516e-03 0.0000000000000000e+00  -2.3528091460521167e-02 -3.4531901516405678e-03 0.0000000000000000e+00  -1.1080456724776078e-02 -3.4462913338640334e-03 0.0000000000000000e+00  1.0423181006954389e-03 -3.4695273658665220e-03 0.0000000000000000e+00  1.3170795862416228e-02 -3.5228687210910989e-03 0.0000000000000000e+00  2.5635535932743765e-02 -3.6096113390453721e-03 0.0000000000000000e+00  3.8777318497483330e-02 -3.7364229969120318e-03 0.0000000000000000e+00  3.9222872854541180e-02 -2.2129915040654509e-03 0.0000000000000000e+00  3.8763354403570538e-02 -6.8754732675598679e-04 0.0000000000000000e+00  2.8220352919894980e-02 -5.4481666579810463e-04 0.0000000000000000e+00  1.8414888341262117e-02 -3.7616964713424754e-04 0.0000000000000000e+00  9.0892534451445049e-03 -1.9178185656365445e-04 0.0000000000000000e+00  0.0000000000000000e+00 0.0000000000000000e+00 0.0000000000000000e+00  0.0000000000000000e+00 0.0000000000000000e+00 0.0000000000000000e+00  -7.3235809842245505e-03 3.2258665697167262e-04 0.0000000000000000e+00  -1.4847319872796144e-02 6.6785992464416194e-04 0.0000000000000000e+00  -2.2776359778369386e-02 1.0592949475218918e-03 0.0000000000000000e+00  -3.1327338496835520e-02 1.5225814385782148e-03 0.0000000000000000e+00  -3.1716172366036834e-02 -1.9247901702267455e-03 0.0000000000000000e+00  -3.1340350531860017e-02 -5.3767484944190775e-03 0.0000000000000000e+00  -2.0051122904242231e-02 -5.2055961695297226e-03 0.0000000000000000e+00  -9.3294088826608654e-03 -5.1193396128602700e-03 0.0000000000000000e+00  1.1150417999979071e-03 -5.1139420825528957e-03 0.0000000000000000e+00  1.1565230094996154e-02 -5.1888570872670797e-03 0.0000000000000000e+00  2.2304190480867601e-02 -5.3470998978593894e-03 0.0000000000000000e+00  3.3622641431161789e-02 -5.5951374121863033e-03 0.0000000000000000e+00  3.3992260625143648e-02 -2.2045071282944849e-03 0.0000000000000000e+00  3.3587606586916258e-02 1.1864994249618924e-03 0.0000000000000000e+00  2.4462713422799213e-02 8.1367857026317877e-04 0.0000000000000000e+00  1.5967118707522841e-02 5.0713482445019780e-04 0.0000000000000000e+00  7.8822221500571537e-03 2.4316124111373213e-04 0.0000000000000000e+00  0.0000000000000000e+00 0.0000000000000000e+00 0.0000000000000000e+00  0.0000000000000000e+00 0.0000000000000000e+00 0.0000000000000000e+00  -5.2757855804420285e-03 6.5204877560688917e-04 0.0000000000000000e+00  -1.0695604251446085e-02 1.3356159307333182e-03 0.0000000000000000e+00  -1.6407501925919936e-02 2.0831244393091902e-03 0.0000000000000000e+00  -2.2566196781378174e-02 2.9291840533727481e-03 0.0000000000000000e+00  -2.2854794664153018e-02 -1.9799057555281150e-03 0.0000000000000000e+00  -2.2590484374500629e-02 -6.8928322280063228e-03 0.0000000000000000e+00  -1.4330504754781294e-02 -6.6211317575886261e-03 0.0000000000000000e+00  -6.4820785460425598e-03 -6.4716020506449257e-03 0.0000000000000000e+00  1.1660247589105918e-03 -6.4397894678705960e-03 0.0000000000000000e+00  8.8198858897333629e-03 -6.5242908677645107e-03 0.0000000000000000e+00  1.6685969294792772e-02 -6.7282918887664597e-03 0.0000000000000000e+00  2.4974708618700985e-02 -7.0577492825136491e-03 0.0000000000000000e+00  2.5227798650678139e-02 -2.1842809800428449e-03 0.0000000000000000e+00  2.4918276519398506e-02 2.6886277154916922e-03 0.0000000000000000e+00  1.8162282797435123e-02 1.9070348528466246e-03 0.0000000000000000e+00  1.1861044417496691e-02 1.2201994649651219e-03 0.0000000000000000e+00  5.8571415431317095e-03 5.9493441913172334e-04 0.0000000000000000e+00  0.0000000000000000e+00 0.0000000000000000e+00 0.0000000000000000e+00  0.0000000000000000e+00 0.0000000000000000e+00 0.0000000000000000e+00  -2.6421252816346266e-03 8.5560718721298999e-04 0.0000000000000000e+00  -5.3578214744759486e-03 1.7477048495697445e-03 0.0000000000000000e+00  -8.2231128768413819e-03 2.7137059104975114e-03 0.0000000000000000e+00  -1.1317050012822367e-02 3.7929207666335500e-03 0.0000000000000000e+00  -1.1478842389246832e-02 -2.0480215094250201e-03 0.0000000000000000e+00  -1.1353045785840557e-02 -7.8911847188495726e-03 0.0000000000000000e+00  -6.9915020070993881e-03 -7.5507306959275832e-03 0.0000000000000000e+00  -2.8460986197994232e-03 -7.3558314194395675e-03 0.0000000000000000e+00  1.1951218509951371e-03 -7.3011909705581763e-03 0.0000000000000000e+00  5.2419429284842976e-03 -7.3854428698157506e-03 0.0000000000000000e+00  9.4041938816802548e-03 -7.6108623601104028e-03 0.0000000000000000e+00  1.3794466072622356e-02 -7.9832453915933965e-03 0.0000000000000000e+00  1.3905997067600387e-02 -2.1576523103451649e-03 0.0000000000000000e+00