<?xml version="1.0"?>
<VTKFile type="UnstructuredGrid"  version="0.1"  >
<UnstructuredGrid>
<Piece  NumberOfPoints="589" NumberOfCells="1080">
<Points>
<DataArray  type="Float64"  NumberOfComponents="3"  format="ascii">-9 0 0  -8 0 0  -7 0 0  -6 0 0  -5 0 0  -4 0 0  -3 0 0  -2 0 0  -1 0 0  0 0 0  1 0 0  2 0 0  3 0 0  4 0 0  5 0 0  6 0 0  7 0 0  8 0 0  9 0 0  -9 2 0  -8.000007892533892 1.999987829345473 0  -7.000016566694119 1.999977184621057 0  -6.000027882566917 1.99996930803059 0  -5.000046110042565 1.999964754079735 0  -4.000027012044961 1.999973565213888 0  -3.000007385560072 1.999982067760986 0  -1.99999787117197 1.999990108311501 0  -0.999996410020063 1.999996461454514 0  2.980786788464591e-08 1.999999227822581 0  0.9999961431431662 1.999997236651381 0  1.999996502679866 1.999990945778087 0  3.000004191257668 1.999983225715812 0  4.000020192951978 1.999974925026422 0  5.000043458387247 1.999971392923291 0  6.000026332331756 1.999972643383929 0  7.000015712075879 1.999978920670138 0  8.00000751725403 1.999988595178625 0  9 2 0  -9 4 0  -8.000012658378161 3.99996955582181 0  -7.000022566594637 3.9999432973372 0  -6.000028118633553 3.999925325847245 0  -5.000029655346732 3.99991955398058 0  -4.000001636182304 3.999923619631525 0  -2.999982874937292 3.999947763501501 0  -1.999978086732534 3.999979247472063 0  -0.9999854253907533 4.000004581146188 0  6.458077227074418e-07 4.000014735439706 0  0.999986449042167 4.0000065747961 0  1.999978215529789 3.999984723671736 0  2.999982193861587 3.9999551402411 0  4.000000302893248 3.999925289834067 0  5.000027990197251 3.999914971685826 0  6.000026641258514 3.999925180070954 0  7.000021722163308 3.999944253419617 0  8.000012323849637 3.999970270106191 0  9 4 0  -9 6 0  -8.000028423809344 5.999934543761748 0  -7.000045991125484 5.999876266006268 0  -6.000044415972306 5.999832548982783 0  -5.000021315084242 5.99981047900636 0  -3.999966343027774 5.999846274493576 0  -2.999941375083555 5.999921294152042 0  -1.999951311659896 5.999999987129607 0  -0.9999760523395678 6.00004376760084 0  -1.14611429082841e-06 6.000052487541 0  0.9999762328246283 6.00003811206053 0  1.999958961764905 5.999998450178337 0  2.999952492697108 5.999931431611816 0  3.999965622907071 5.999861835708029 0  5.000012932135767 5.99982708064461 0  6.000041230757678 5.999842260632221 0  7.000045647917596 5.999881817114121 0  8.000028830822778 5.999937096293465 0  9 6 0  -9 8 0  -8.000087603001354 7.999870837418859 0  -7.000145977997688 7.999751012938441 0  -6.000146811689546 7.999653204942165 0  -5.000065860626648 7.999598304578391 0  -3.999959378854794 7.999764131117424 0  -2.999978812796501 7.999959069055874 0  -2.000018635793894 8.000054198035915 0  -1.00002201643578 8.000065207669607 0  1.722201805240803e-06 8.00006845203416 0  1.000019355471633 8.000078095295905 0  2.000011752176102 8.000037899261322 0  2.999964933359595 7.999969536241508 0  3.999948961962197 7.999800316876995 0  5.000054329125389 7.999609323916768 0  6.000151330803524 7.99966186486663 0  7.000154492983601 7.999756512756354 0  8.000093377469467 7.999873441585698 0  9 8 0  -9 10 0  -8.000263594908262 9.99976985869664 0  -7.000476022873581 9.999537817853486 0  -6.000576244181206 9.999302435043358 0  -5.000479213682948 9.999063361435146 0  -4.000310485310755 9.999598750058912 0  -3.000337755982796 10.00005913753117 0  -2.000269124640321 9.999980291623915 0  -1.000120810007849 9.999954978462489 0  -1.134143643214999e-05 9.999948781594057 0  1.000097429549486 9.999949195476663 0  2.000242562630282 9.999946051923986 0  3.000369905760165 10.00011319124436 0  4.000353311308958 9.999671293574357 0  5.000547119475091 9.999088076055546 0  6.000636571831011 9.999313209148077 0  7.000520311586479 9.999542178491286 0  8.000286882003476 9.99977132805296 0  9 10 0  -9 12 0  -8.000643794505931 11.99967664896446 0  -7.001254142622475 11.99933827893957 0  -6.001793230661395 11.99896693085158 0  -5.002214091963098 11.99853757258337 0  -4.002127937779246 11.99951345118577 0  -3.002205578557821 12.0004794648199 0  -2.001506131261042 12.00036372487196 0  -1.000729369658548 12.00030174242759 0  7.629166369900437e-05 12.00029089162742 0  1.000889149099036 12.0003333005554 0  2.001690672705122 12.00044093342729 0  3.002444030796749 12.00064362188895 0  4.002359153528627 11.99958158344193 0  5.002415590390986 11.99851061109767 0  6.001943590579758 11.99894959631851 0  7.001354270352887 11.99932736148433 0  8.000693867372808 11.99967127255419 0  9 12 0  -9 14 0  -8.001156830666577 13.99964370825317 0  -7.002315782591741 13.99927098658613 0  -6.003480522449084 13.99886395592068 0  -5.004658639280108 13.99840189279863 0  -4.004671086426875 13.99954169441494 0  -3.004677754677834 14.00069583678614 0  -2.003054189258791 14.00053248481551 0  -1.001454299138133 14.00044429576878 0  0.0001353982247435772 14.00042025598437 0  1.001727648770169 14.00045687340819 0  2.003334159929842 14.00055611707909 0  3.004963970632048 14.00072334685696 0  4.004975610087906 13.99953970466711 0  5.004983593227474 13.99836323426992 0  6.003717533223097 13.99883163612773 0  7.00247117817691 13.99924842331612 0  8.001233847781894 13.99963220514897 0  9 14 0  -9 16 0  -8.001660088067867 15.99967661568675 0  -7.003352138232569 15.99934120261543 0  -6.005110871204576 15.99898152105653 0  -5.006976607776299 15.99858509727325 0  -4.007043540129546 15.99955560703052 0  -3.006980219195727 16.00052089352979 0  -2.004510916629811 16.0004016437184 0  -1.002139916897587 16.00033110026163 0  0.0001843839680114181 16.00030775993872 0  1.002510729764322 16.00033069946013 0  2.004887841403952 16.00040011598968 0  3.007367527092765 16.00051707977071 0  4.007437825999857 15.99950877577575 0  5.007376194919716 15.9984996439878 0  6.005408661900058 15.99892066562315 0  7.003549563761881 15.99930187802082 0  8.001758449301867 15.99965728173416 0  9 16 0  -9 18 0  -8.00203413056667 17.99975767192577 0  -7.004119318153697 17.99950862867187 0  -6.00630926923435 17.99924627512387 0  -5.008662950610239 17.99896427843683 0  -4.008763926806783 17.99955853054166 0  -3.008666371999991 18.00015193227736 0  -2.005578764476641 18.00007684684326 0  -1.002640750670468 18.00002999387312 0  0.000225145284211442 18.00001103712262 0  1.003092641589389 18.00001949195289 0  2.006035352547514 18.00005476538552 0  3.009130400789121 18.00011601073345 0  4.009233462272308 17.99948577195541 0  5.009135239558129 17.99885727800985 0  6.006661476538393 17.99916927560475 0  7.004353137416096 17.99945877917132 0  8.002150742635274 17.99973317827452 0  9 18 0  -9 20 0  -8.002202681567621 19.9998655684044 0  -7.004464938614841 19.99972933064961 0  -6.006848619609672 19.99958967923075 0  -5.009420116923586 19.99944539411584 0  -4.009535310251494 19.99955832756195 0  -3.009421262127387 19.99967029387161 0  -2.00605314087 19.9996397623492 0  -1.002855428513324 19.99961796642581 0  0.0002594366015666152 19.99960533065421 0  1.003375850579131 19.99960165224407 0  2.006578185944207 19.99960612334475 0  3.009953946437016 19.9996172759724 0  4.010070555178163 19.99947446388005 0  5.009955508410596 19.99933280449411 0  6.007247880417601 19.99950796122767 0  7.004730026276298 19.99967614668864 0  8.002334900334397 19.99983936442488 0  8.999999999993163 19.9999999999934 0  -9 22 0  -8.002131758518367 21.99998066703197 0  -7.004322364885811 21.99996368472515 0  -6.006632518154474 21.99995162768156 0  -5.009126599699191 21.99994752343826 0  -4.009239369991009 21.99955355231207 0  -3.009127266246075 21.99915847592453 0  -2.005850868152795 21.99916795124199 0  -1.002741056836737 21.99916953482762 0  0.0002875458660691375 21.99916403211126 0  1.003317739903806 21.99915143507184 0  2.006432325659861 21.9991309376568 0  3.009716686186438 21.99910092071709 0  4.009829193802093 21.99947100111087 0  5.009714075267206 21.99984166415346 0  6.007070653366758 21.99987451705924 0  7.004613273439272 21.99991335910352 0  8.002276853996682 21.99995582867211 0  9 22 0  -9 24 0  -8.00182423138607 24.0000863664487 0  -7.003699038832179 24.00017834059076 0  -6.005676435702897 24.00028176113212 0  -5.007811197180692 24.00040294593309 0  -4.00790839901002 23.99954432323119 0  -3.007812750498345 23.99868466648779 0  -2.004987103665731 23.9987275142464 0  -1.002304086008709 23.99874926739781 0  0.000309416607367244 23.99875092884859 0  1.002924564965508 23.99873262461751 0  2.00561253158177 23.99869360830217 0  3.008446468337111 23.99863225508014 0  4.008540766909481 23.99947321661116 0  5.008439367260765 24.00031442973807 0  6.006144913161599 24.00021708244373 0  7.004010091001873 24.00013603476521 0  8.001979369819464 24.00006545795227 0  9 24 0  -9 26 0  -8.001313007259448 26.00016966261355 0  -7.002662621323721 26.00034722997381 0  -6.00408647086291 26.00054084194919 0  -5.005624004818298 26.00075912694325 0  -4.005695593786278 25.99953115403371 0  -3.005627329005808 25.99830234402767 0  -2.003557509405002 25.99837101229272 0  -1.001591178266625 25.99840892741866 0  0.0003249079906189158 25.99841724433305 0  1.002242668758196 25.99839620758025 0  2.004214038416218 25.9983451524356 0  3.00629230197276 25.99826250210884 0  4.006357938820038 25.99947912297144 0  5.006280803537826 26.00069576062073 0  6.004576341158618 26.00049444208721 0  7.002987896979146 26.00031683210914 0  8.001475245748075 26.00015462395196 0  9 26 0  -9 28 0  -8.000653736017712 28.00022137061989 0  -7.001326314496758 28.00045196206213 0  -6.002037164080543 28.00070123449945 0  -5.002806578785014 28.0009791351482 0  -4.002845653505235 27.99951523686168 0  -3.002811919340413 27.99805084840554 0  -2.001718559011248 27.99813705740959 0  -1.000679373156879 27.99818650891052 0  0.0003339056182825741 27.99820049498834 0  1.001348852578499 27.99817937403579 0  2.002393053902498 27.99812257118548 0  3.003494809875389 27.99802857676957 0  4.003525121398384 27.99948736925796 0  5.003479690360278 28.00094609411718 0  6.002539277230642 28.00067699149056 0  7.001659758625545 28.00043605526831 0  8.000820063836121 28
[...]
<PointData  Scalars="f_44-1"> 
<DataArray  type="Float64"  Name="f_44-1"  format="ascii">1.4497995575092398e-03  2.6526597912834562e-06  4.5366266073996548e-05  5.5796262698073871e-05  -1.3042311485676969e-03  0.0000000000000000e+00  0.0000000000000000e+00  0.0000000000000000e+00  0.0000000000000000e+00  0.0000000000000000e+00  0.0000000000000000e+00  0.0000000000000000e+00  0.0000000000000000e+00  0.0000000000000000e+00  1.4558917230047567e-03  4.4414137602264385e-06  4.7443412729196441e-05  4.8532735550943547e-05  -1.3157633283882846e-03  9.0525183139777671e-02  9.0541793272475468e-02  9.0362847537647825e-02  9.0071389305468014e-02  8.9942257145668197e-02  0.0000000000000000e+00  0.0000000000000000e+00  0.0000000000000000e+00  0.0000000000000000e+00  0.0000000000000000e+00  0.0000000000000000e+00  0.0000000000000000e+00  0.0000000000000000e+00  0.0000000000000000e+00  9.0434847337976132e-02  9.0443611787538583e-02  9.0256604207330754e-02  8.9963211773977592e-02  8.9830435453837093e-02  1.8066401232279897e-01  1.8064417170641836e-01  1.8059865461855071e-01  1.8055899884175519e-01  1.8057726916797992e-01  0.0000000000000000e+00  0.0000000000000000e+00  0.0000000000000000e+00  0.0000000000000000e+00  0.0000000000000000e+00  0.0000000000000000e+00  0.0000000000000000e+00  0.0000000000000000e+00  0.0000000000000000e+00  1.8043803947679488e-01  1.8044303502753553e-01  1.8041747408369777e-01  1.8038088402889640e-01  1.8039230265068257e-01  2.7094156198145969e-01  2.7094272964298288e-01  2.7095126637629396e-01  2.7096395515443739e-01  2.7095726432855460e-01  0.0000000000000000e+00  0.0000000000000000e+00  0.0000000000000000e+00  0.0000000000000000e+00  0.0000000000000000e+00  0.0000000000000000e+00  0.0000000000000000e+00  0.0000000000000000e+00  0.0000000000000000e+00  2.7063769731041182e-01  2.7063207684196583e-01  2.7063970040909530e-01  2.7064805267593167e-01  2.7065604214144146e-01  3.6126792434198818e-01  3.6125196595345194e-01  3.6119354404510623e-01  3.6106674502888120e-01  3.6098545497981049e-01  0.0000000000000000e+00  0.0000000000000000e+00  0.0000000000000000e+00  0.0000000000000000e+00  0.0000000000000000e+00  0.0000000000000000e+00  0.0000000000000000e+00  0.0000000000000000e+00  0.0000000000000000e+00  3.6077351332576346e-01  3.6085455674567396e-01  3.6088955706532899e-01  3.6091216428027145e-01  3.6092566989313241e-01  4.5170228310253457e-01  4.5168591364560684e-01  4.5164460158194286e-01  4.5162184527840316e-01  4.5160758893969033e-01  0.0000000000000000e+00  1.4145073273862423e+00  1.4143714737108013e+00  1.4144013058557172e+00  1.4143571949248970e+00  1.4144160101654926e+00  1.4144533925993448e+00  1.4138079296819708e+00  0.0000000000000000e+00  4.5111379744689006e-01  4.5115416950988030e-01  4.5118341547878510e-01  4.5122042367416360e-01  4.5123952935305511e-01  5.4224694025884079e-01  5.4222015145686175e-01  5.4213915504499788e-01  5.4201883163661957e-01  5.4178617513000205e-01  0.0000000000000000e+00  1.4144831459656746e+00  1.4143438652920417e+00  1.4142576119161583e+00  1.4142159680930451e+00  1.4142624397066483e+00  1.4143449691687378e+00  1.4146645733902332e+00  0.0000000000000000e+00  5.4121536423425998e-01  5.4138880205027817e-01  5.4153784919043968e-01  5.4161988590348475e-01  5.4165069840741498e-01  6.3301921580224030e-01  6.3297938920551422e-01  6.3283900706497953e-01  6.3260421910256481e-01  6.3223475027291742e-01  0.0000000000000000e+00  1.4144217662864602e+00  1.4140708994774622e+00  1.4138409840353843e+00  1.4137706662580405e+00  1.4138385644812523e+00  1.4140428257868232e+00  1.4143711923418074e+00  0.0000000000000000e+00  6.3144465897654800e-01  6.3183240572187649e-01  6.3209181596654884e-01  6.3224851731427301e-01  6.3229597816557737e-01  7.2419938047849319e-01  7.2414720868235249e-01  7.2394436439705423e-01  7.2359074057016604e-01  7.2305129572661420e-01  0.0000000000000000e+00  1.4136664053187793e+00  1.4131690355044539e+00  1.4128735490798872e+00  1.4127776339225597e+00  1.4128754491959894e+00  1.4131687473446135e+00  1.4136837694979305e+00  0.0000000000000000e+00  7.2211467013553587e-01  7.2269392997329596e-01  7.2309003208342570e-01  7.2331583262991406e-01  7.2337693753382459e-01  8.1597452683991789e-01  8.1591416808132444e-01  8.1566423551960754e-01  8.1522193380722308e-01  8.1456343045489743e-01  0.0000000000000000e+00  1.4121115621290490e+00  1.4114904846714755e+00  1.4111224698729836e+00  1.4110024174930114e+00  1.4111260610212597e+00  1.4114954686024743e+00  1.4121296421938516e+00  0.0000000000000000e+00  8.1358711557075603e-01  8.1428108500666041e-01  8.1475675430211647e-01  8.1502718890772774e-01  8.1509611575931507e-01  9.0848614913167491e-01  9.0842388297120080e-01  9.0815332041422958e-01  9.0767163730692091e-01  9.0696738958616685e-01  0.0000000000000000e+00  1.4094740480742161e+00  1.4087956953779059e+00  1.4083992078356971e+00  1.4082716999866751e+00  1.4084087813691732e+00  1.4088143401200541e+00  1.4095039371312668e+00  0.0000000000000000e+00  9.0599856548523705e-01  9.0673596666022249e-01  9.0724127524141629e-01  9.0752654404526145e-01  9.0759600703815579e-01  1.0017975661200242e+00  1.0017402023893403e+00  1.0014792894955815e+00  1.0010132350591607e+00  1.0003424115456969e+00  0.0000000000000000e+00  1.4056660952134090e+00  1.4050045158518532e+00  1.4046216112708825e+00  1.4044995207908972e+00  1.4046354321524002e+00  1.4050342546760712e+00  1.4057063656559732e+00  0.0000000000000000e+00  9.9942090022853691e-01  1.0001202292379181e+00  1.0005996128150405e+00  1.0008688743167282e+00  1.0009320450254047e+00  1.0958816286945579e+00  1.0958354167223900e+00  1.0956133504823657e+00  1.0952156270623052e+00  1.0946533445213718e+00  0.0000000000000000e+00  1.4007146492988676e+00  1.4001426624425732e+00  1.3998154021770346e+00  1.3997126193156324e+00  1.3998330615088594e+00  1.4001819336012162e+00  1.4007633334301994e+00  0.0000000000000000e+00  1.0938068714853433e+00  1.0943917432385859e+00  1.0947925347432346e+00  1.0950165748040572e+00  1.0950671556896159e+00  1.1906234253623624e+00  1.1905932628225147e+00  1.1904345206688931e+00  1.1901493177846842e+00  1.1897579017366120e+00  0.0000000000000000e+00  1.3947740549831653e+00  1.3943545577600316e+00  1.3941190668969179e+00  1.3940472977402611e+00  1.3941396132463451e+00  1.3944010033696204e+00  1.3948290153294183e+00  0.0000000000000000e+00  1.1890014649757925e+00  1.1894092326598713e+00  1.1896884338701581e+00  1.1898434328837530e+00  1.1898765917892598e+00  1.2858341984693005e+00  1.2858230932393337e+00  1.2857447715630990e+00  1.2856031059527471e+00  1.2854253824448141e+00  0.0000000000000000e+00  1.3881067374850746e+00  1.3878855791480984e+00  1.3877678319031901e+00  1.3877353816723861e+00  1.3877901231592873e+00  1.3879363791083985e+00  1.3881653757107915e+00  0.0000000000000000e+00  1.2847629040424740e+00  1.2849509640796453e+00  1.2850794065915643e+00  1.2851494456173895e+00  1.2851623719402754e+00  1.3812734359887369e+00  1.3812822207008224e+00  1.3812923611553560e+00  1.3813091192548337e+00  1.3813642677502871e+00  0.0000000000000000e+00  1.3810538728169501e+00  1.3810551878267172e+00  1.3810683340815255e+00  1.3810792409046648e+00  1.3810911228735148e+00  1.3811072654329519e+00  1.3811133892124901e+00  0.0000000000000000e+00  1.3807902222392732e+00  1.3807400904278302e+00  1.3807052267292002e+00  1.3806837816428570e+00  1.3806759521290337e+00  1.4766760238528687e+00  1.4767033030456371e+00  1.4768002004752308e+00  1.4769729109551921e+00  1.4772547943418319e+00  0.0000000000000000e+00  1.3739986957378139e+00  1.3742225602916267e+00  1.3743655972447757e+00  1.3744192044010497e+00  1.3743876043047014e+00  1.3742727657327896e+00  1.3740562642795238e+00  0.0000000000000000e+00  1.4767564648095073e+00  1.4764752892630368e+00  1.4762821850086185e+00  1.4761726282735135e+00  1.4761458098191678e+00  1.5717813210675502e+00  1.5718236869307225e+00  1.5719962279300275e+00  1.5723055843040932e+00  1.5727835453535199e+00  0.0000000000000000e+00  1.3673255141802474e+00  1.3677479794383882e+00  1.3680058428667525e+00  1.3680968531015154e+00  1.3680258467902657e+00  1.3677932892961848e+00  1.3673784549001180e+00  0.0000000000000000e+00  1.5723435371677168e+00  1.5718631309487296e+00  1.5715337426893810e+00  1.5713488542873133e+00  1.5713068585282703e+00  1.6663615696412222e+00  1.6664139933193420e+00  1.6666428392643418e+00  1.6670546840124183e+00  1.6676766684635600e+00  0.0000000000000000e+00  1.3613782613615029e+00  1.3619537588026969e+00  1.3622988197683190e+00  1.3624178115436969e+00  1.3623157237128745e+00  1.3619914446679655e+00  1.3614241950344750e+00  0.0000000000000000e+00  1.6672756394816073e+00  1.6666491608991252e+00  1.6662199363831625e+00  1.6659804557892253e+00  1.6659286810058658e+00  1.7602451664212109e+00  1.7603015590730384e+00  1.7605612642391320e+00  1.7610307545150741e+00  1.7617290732599615e+00  0.0000000000000000e+00  1.3564224927336277e+00  1.3570885866424229e+00  1.3574834798253410e+00  1.3576178678315076e+00  1.3574963962417776e+00  1.3571164230471320e+00  1.3564595743619057e+00  0.0000000000000000e+00  1.7613487397293159e+00  1.7606448468502696e+00  1.7601626390359884e+00  1.7598949945136315e+00  1.7598397770758927e+00  1.8533378722532290e+00  1.8533918926156914e+00  1.8536542112359242e+00  1.8541306719225890e+00  1.8548296407542391e+00  0.0000000000000000e+00  1.3526152268958069e+00  1.3532990767166888e+00  1.3537008779183439e+00  1.3538364842302679e+00  1.3537094902093534e+00  1.3533156638923345e+00  1.3526417966793309e+00  0.0000000000000000e+00  1.8544524415122754e+00  1.8537471301444297e+00  1.8532643879965887e+00  1.8529974720528730e+00  1.8529452844703365e+00  1.9456233486780581e+00  1.9456691478080179e+00  1.9459069997014220e+00  1.9463413665116260e+00  1.9469659945855753e+00  0.0000000000000000e+00  1.3499839782893019e+00  1.3506131475867411e+00  1.3509793427395340e+00  1.3511016580962507e+00  1.3509819119602580e+00  1.3506160139988972e+00  1.3499988716554772e+00  0.0000000000000000e+00  1.9465797582877287e+00  1.9459517999579403e+00  1.9455178311513825e+00  1.9452791408512042e+00  1.9452355168040933e+00  2.0371780814640652e+00  2.0372142746540822e+00  2.0374031392163627e+00  2.0377457362197098e+00  2.0382264624856230e+00  0.0000000000000000e+00  1.3484278487007635e+00  1.3489390982892990e+00  1.3492299801836434e+00  1.3493267540674421e+00  1.3492310455174090e+00  1.3489369272780407e+00  1.3484423613181955e+00  0.0000000000000000e+00  2.0378560256717297e+00  2.0373469440970600e+00  2.0370035753644840e+00  2.0368148789057199e+00  2.0367838171678092e+00  2.1281250641129956e+00  2.1281446717805395e+00  2.1282759152390551e+00  2.1285473484289228e+00  2.1289073529886839e+00  0.0000000000000000e+00  1.3477409439391950e+00  1.3480666181220458e+00  1.3482694953944547e+00  1.3483366024808345e+00  1.3482658979211000e+00  1.3480358707798563e+00  1.3476866910821281e+00  0.0000000000000000e+00  2.1283945645435494e+00  2.1281021756325620e+00  2.1278750566230036e+00  2.1277500625353323e+00  2.1277321052514666e+00  2.2186432772463736e+00  2.2186565757930357e+00  2.2187418828012158e+00  2.2188847736561805e+00  2.2189962555067035e+00  0.0000000000000000e+00  1.3474479331005345e+00  1.3477673413417672e+00  1.3478494029596764e+00  1.3478954411464732e+00  1.3478535483918772e+00  1.3477672095647866e+00  1.3476271781244185e+00  0.0000000000000000e+00  2.2186894204630345e+00  2.2184539117416713e+00  2.2183354101644137e+00  2.2182703751630242e+00  2.2182654492659095e+00  2.3089226404399494e+00  2.3089181508007250e+00  2.3089355354925347e+00  2.3089289403523261e+00  2.3089569782464965e+00  0.0000000000000000e+00  1.3483075813102650e+00  1.3476615967926426e+00  1.3476992535913594e+00  1.3477576053333402e+00  1.3477137329122346e+00  1.3477432691375355e+00  1.3476085169346688e+00  0.0000000000000000e+00  2.3084583120478426e+00  2.3085574010817949e+00  2.3085745829005671e+00  2.3085767976848457e+00  2.3085785394376233e+00  2.3990809640704169e+00  2.3991011840505698e+00  2.3990920039232302e+00  2.3990873587820722e+00  2.3991192890210717e+00  0.0000000000000000e+00  0.0000000000000000e+00  0.0000000000000000e+00  0.0000000000000000e+00  0.0000000000000000e+00  0.0000000000000000e+00  0.0000000000000000e+00  0.0000000000000000e+00  0.0000000000000000e+00  2.3987594382164179e+00  2.3987967712322233e+00  2.3988126268116292e+00  2.3988304374932095e+00  2.3988544494120201e+00  2.4894080634162798e+00  2.4893675272142950e+00  2.4893710385376515e+00  2.4893873103432895e+00  2.4893466921877314e+00  0.0000000000000000e+00  0.0000000000000000e+00  0.0000000000000000e+00  0.0000000000000000e+00  0.0000000000000000e+00  0.0000000000000000e+00  0.0000000000000000e+00  0.0000000000000000e+00  0.0000000000000000e+00  2.4892341895914516e+00  2.4891838508975099e+00  2.4891982587928005e+00  2.4892295640844484e+00  2.4892097496075434e+00  2.5793142118372736e+00  2.5792954151564942e+00  2.5793333591284129e+00  2.5792594913841085e+00  2.5792025110153349e+00  0.0000000000000000e+00  0.0000000000000000e+00  0.0000000000000000e+00  0.0000000000000000e+00  0.0000000000000000e+00  0.0000000000000000e+00  0.0000000000000000e+00  0.0000000000000000e+00  0.0000000000000000e+00  2.5792119888909846e+00  2.5791985186487705e+00  2.5792360995032957e+00  2.5791673281161684e+00  2.5791198888514049e+00  2.6692717326062025e+00  2.6698905683634027e+00  2.6701230937585412e+00  2.6704491454456352e+00  2.6710433549280941e+00  0.0000000000000000e+00  0.0000000000000000e+00  0.0000000000000000e+00  0.0000000000000000e+00  0.0000000000000000e+00  0.0000000000000000e+00  0.0000000000000000e+00  0.0000000000000000e+00  0.0000000000000000e+00  2.6692843614024486e+00  2.6698645523764228e+00  2.6700774842135648e+00  2.6703845831202715e+00  2.6709535846620573e+00  2.7637736383264873e+00  2.7598711601033767e+00  2.7593284797734152e+00  2.7598587302431343e+00  2.7576918745191263e+00  0.0000000000000000e+00  0.0000000000000000e+00  0.0000000000000000e+00  0.0000000000000000e+00  0.0000000000000000e+00  0.0000000000000000e+00  0.0000000000000000e+00  0.0000000000000000e+00  0.0000000000000000e+00  2.7637411722203087e+00  2.7598778347621984e+00  2.7593330153325297e+00  2.7598583111574375e+00  2.7577148046981459e+00  </DataArray> 
</PointData> 
</Piece>
</UnstructuredGrid>
</VTKFile>