<?xml version="1.0"?>
<VTKFile type="UnstructuredGrid"  version="0.1"  >
<UnstructuredGrid>
<Piece  NumberOfPoints="589" NumberOfCells="1080">
<Points>
<DataArray  type="Float64"  NumberOfComponents="3"  format="ascii">-9 0 0  -8 0 0  -7 0 0  -6 0 0  -5 0 0  -4 0 0  -3 0 0  -2 0 0  -1 0 0  0 0 0  1 0 0  2 0 0  3 0 0  4 0 0  5 0 0  6 0 0  7 0 0  8 0 0  9 0 0  -9 2 0  -7.99999278283174 2.000010062960262 0  -6.999984907769082 2.000018927255113 0  -5.999974839706626 2.000025622245402 0  -4.999959076835744 2.000029730947567 0  -3.999975004163683 2.000022108253888 0  -2.999991436504194 2.000015086166906 0  -1.999999625911754 2.000008581222154 0  -1.000001339210539 2.000003421412265 0  1.021262962368022e-06 2.000001087930049 0  1.000003773130038 2.00000245355407 0  2.00000337939623 2.000007108684616 0  2.999997505323694 2.000012762174929 0  3.999985539312818 2.000018581290505 0  4.999968499102751 2.000020188626668 0  5.999981316021567 2.000019707906785 0  6.999989013561087 2.000015341796171 0  7.999994781820682 2.000008341984712 0  9 2 0  -9.000000000009988 4 0  -7.999988197078373 4.000024921147136 0  -6.999978587529303 4.000046532156968 0  -5.999972458563582 4.000061589874113 0  -4.999969564425967 4.000067003284886 0  -3.999992381614295 4.000063367221033 0  -3.000007810237963 4.000043894162848 0  -2.000012166121903 4.000018612114365 0  -1.00000691778626 3.999998244762682 0  3.580376037183978e-06 3.999989838174244 0  1.000014379533746 3.99999566663897 0  2.000020674581827 4.000011997452362 0  3.000017692700065 4.000034045003525 0  4.000004022525708 4.000055788928059 0  4.999983139995264 4.000061686496007 0  5.999983109475142 4.000054957662812 0  6.999985744146218 4.000041218893061 0  7.999991763785808 4.000022053186737 0  9 4 0  -9 6 0  -7.999974837057198 6.000053022556943 0  -6.999958344887117 6.000100352685218 0  -5.999957138177669 6.000136137051109 0  -4.999973097567946 6.000154783850678 0  -4.000017043082352 6.000125841494254 0  -3.000037122690101 6.000065868871174 0  -2.00002941117189 6.000003106627109 0  -1.000010087585487 5.99996831449351 0  9.287228144098553e-06 5.99996112595828 0  1.00002650264454 5.999971833351638 0  2.000039477970896 6.000001746666863 0  3.000044274927897 6.000052253292059 0  4.000034200670994 6.0001042340587 0  4.999997898761818 6.000128946942912 0  5.999974242077804 6.000118249274402 0  6.999968934223247 6.000088806114104 0  7.999979878535089 6.000047316551498 0  9 6 0  -9 8 0  -7.99992678957078 8.000103905860657 0  -6.999876955832476 8.000200369285091 0  -5.999873151006918 8.00027924719385 0  -4.999934706995822 8.00032379413798 0  -4.000019556405612 8.000191145397613 0  -3.000003362203923 8.000035373024906 0  -1.999971090561815 7.999959963584669 0  -0.9999682496198556 7.999952025848575 0  1.270378593889247e-05 7.999949848188171 0  0.9999980955935142 7.999942420042581 0  2.000003100117632 7.999972494140667 0  3.000038429328149 8.000023869748409 0  4.000049917901209 8.000152070054215 0  4.999968687713448 8.000296665348658 0  5.999891970386141 8.000256539868559 0  6.999887105623854 8.000184591795396 0  7.999931276232072 8.000095897490368 0  9 8 0  -9 10 0  -7.999785173708006 10.00018460844316 0  -6.999611384187125 10.00037080524429 0  -5.99952765904153 10.00055980765898 0  -4.999602164843166 10.00075202104859 0  -3.999737311756814 10.00032258874865 0  -2.999714494926947 9.999953238613928 0  -1.999768537963035 10.00001864074087 0  -0.9998868435510214 10.00003970530745 0  2.663919790949542e-05 10.00004482094384 0  0.9999413213623221 10.00004423858052 0  1.999828604012348 10.00004569263149 0  2.999728282313661 9.999916814614124 0  3.999738978025634 10.00025276478547 0  4.999591068255237 10.00069554027159 0  5.999522164331423 10.00052221558533 0  6.999609058060884 10.00034741503145 0  7.999784411081643 10.00017332435167 0  9 10 0  -9 12 0  -7.99947912447374 12.00025906357887 0  -6.998985087974221 12.00053019774197 0  -5.998548339473643 12.00082783642063 0  -4.998206435806157 12.00117214382218 0  -3.998276710567525 12.00038736709109 0  -2.998214190572086 11.99960971583583 0  -1.998753968439273 11.99970648472567 0  -0.9993578891238667 11.99976074063092 0  1.298109363656371e-05 11.99977467195048 0  0.9993757240447904 11.99974690542599 0  1.998744274623455 11.99966848695384 0  2.99814589913493 11.99951675489237 0  3.998206940988775 12.00031979471429 0  4.998164865885228 12.00112877098337 0  5.998528566515038 12.00079400948722 0  6.998976873765153 12.00050753069014 0  7.999476419841284 12.00024776745481 0  9 12 0  -9 14 0  -7.999065126486119 14.00028535633514 0  -6.998128691061996 14.00058377985997 0  -5.997188017996643 14.00090949305913 0  -4.996237056383774 14.00127896928564 0  -3.996229252613869 14.00035868040688 0  -2.996223886425869 13.99942646744164 0  -1.997483942640832 13.99956460050161 0  -0.9987286148717669 13.99964326840458 0  3.191296134946488e-05 13.99967148881277 0  0.998787676026577 13.99965238747632 0  1.997529179979792 13.99958483313734 0  2.996248688050657 13.99946505338886 0  3.996234909995311 14.00034790304108 0  4.996229966385346 14.0012248153064 0  5.997195225383368 14.00087310123054 0  6.998138966710488 14.00056103889315 0  7.999071816276034 14.00027436600291 0  9 14 0  -9 16 0  -7.998656565092057 16.00025946006668 0  -6.997287909570177 16.00052837159793 0  -5.995866703070856 16.00081634943796 0  -4.994360980641996 16.00113312843072 0  -3.994309719970318 16.00034242880538 0  -2.99435959672505 15.99955590728737 0  -1.996277518619784 15.99966121245471 0  -0.9981210770831059 15.99972809551901 0  6.987893240687611e-05 15.99975804886027 0  0.9982575356335637 15.99975212573024 0  1.996403968148083 15.99971052186999 0  2.994468799359737 15.99963276221089 0  3.994410898656006 16.00036823580763 0  4.994459270250364 16.001104311124 0  5.995945739985156 16.00079386753816 0  6.997343292211809 16.00051318687638 0  7.998685085486827 16.00025184009628 0  9 16 0  -9 18 0  -7.998348026438935 18.00019577822462 0  -6.996655800017731 18.00039677948986 0  -5.994880991467746 18.00060813128397 0  -4.992976990008893 18.00083469505289 0  -3.992898205156883 18.00033735170129 0  -2.992974366579673 17.99984064943605 0  -1.995371183171181 17.99991202863896 0  -0.9976528513552643 17.99996117531298 0  0.0001209397425763683 17.99998864024179 0  0.9978933191114144 17.99999509817133 0  1.995607481389805 17.99998132096647 0  2.993203977203341 17.99994828908078 0  3.993122697249777 18.00038459378393 0  4.993198876644793 18.00081950848974 0  5.995049414266998 18.00059575678653 0  6.996769086953657 18.00038810623704 0  7.998404982864097 18.00019132463223 0  9 18 0  -9 20 0  -7.998199704138445 20.00011118960693 0  -6.996352452294992 20.00022380197648 0  -5.994409476460932 20.00033910478252 0  -4.992318353640874 20.00045803086628 0  -3.992227995377486 20.00033682964029 0  -2.992316820016916 20.00021609304652 0  -1.994928364624884 20.0002521528114 0  -0.9974078717117972 20.00028137050184 0  0.0001775459998887421 20.00030364458635 0  0.9977631609817903 20.00031938128897 0  1.9952843030736 20.00032947881223 0  2.992674026641186 20.00033537033366 0  3.99258396065168 20.0003939074691 0  4.992672152757769 20.00045126473136 0  5.994673982498865 20.00033328594343 0  6.996528419077823 20.0002195688851 0  7.998287582842464 20.00010896811301 0  8.999999999963416 20.0000000000025 0  -9 22 0  -7.998238475431729 22.00002089261541 0  -6.996430451558353 22.00004005458509 0  -5.994527963574017 22.00005558015762 0  -4.992480098668307 22.00006520908898 0  -3.992391785980109 22.00034061890963 0  -2.992479542628874 22.00061627460292 0  -1.995016629873162 22.0006197676321 0  -0.9974239883406067 22.00062947241959 0  0.0002333313591607903 22.00064492919523 0  0.9978922222710478 22.00066633930946 0  1.995489646462006 22.00069455314962 0  2.992960761590327 22.00073108283027 0  3.992874731792591 22.00039787147296 0  4.992961451701988 22.00006360954683 0  5.994885659771166 22.00005376113967 0  6.996667370782419 22.00003855135241 0  7.998356476851046 22.00002005507412 0  9 22 0  -9 24 0  -7.998462504320078 23.99993751585283 0  -6.996884740344811 23.99987084699017 0  -5.99522535500693 23.99979562840088 0  -4.993440769466392 23.99970714298547 0  -3.993365228423059 24.00034700765366 0  -2.993441329933795 24.00098684108666 0  -1.995626630979457 24.00096241759108 0  -0.9977001245641228 24.00095445351289 0  0.0002828883084840996 24.00096228464404 0  0.9982685744822072 24.00098595613699 0  1.996203177200489 24.00102621810507 0  2.994031625014538 24.00108453126715 0  3.993959632508512 24.00039665393992 0  4.994033909380804 23.99970777471558 0  5.995664947702071 23.99979567454078 0  6.997175330876412 23.99987067370105 0  7.99860706251541 23.99993736818147 0  9 24 0  -9 26 0  -7.998846782431305 25.99987089031232 0  -6.997663871852514 25.99973584192057 0  -5.996420885106216 25.99958873541803 0  -4.995085932811985 25.99942310145307 0  -3.995031103712593 26.00035453820868 0  -2.995087455830622 26.0012857698019 0  -1.996686561090302 26.00123897328846 0  -0.9982035078335344 26.0012159940113 0  0.0003218691338791744 26.00121601345172 0  0.9988507251973449 26.00123893602888 0  1.997344296556181 26.00128538752251 0  2.995762991321605 26.00135671736166 0  3.995712484352434 26.00039081283596 0  4.995766286698753 25.99942407366422 0  5.996924467008388 25.9995892059004 0  6.997996446364644 25.99973603121354 0  7.999012129895832 25.99987094731103 0  9 26 0  -9 28 0  -7.999348879447286 27.99982803477173 0  -6.998681562884022 27.99964907486268 0  -5.997981548488341 27.99945594661884 0  -4.997231545060328 27.99924112418647 0  -3.997202516463614 28.00036219822726 0  -2.997233501838467 28.00148297787306 0  -1.998077757629091 28.00141999413438 0  -0.9988773744031411 28.001385268044 0  0.0003470584357888861 28.00137784959394 0  0.9995754628495523 28.00139750979592 0  1.998787842592942 28.0014447396998 0  2.99796385474252 28.00152075097161 0  3.997939794292966 28.00038134037994 0  4.997967938249397 27.9992413384895 0  5.998526296387824 27.9994560011378 0  6.999041172486624
[...]
<PointData  Scalars="f_44-1"> 
<DataArray  type="Float64"  Name="f_44-1"  format="ascii">-2.1141864597918197e-03  -2.0819422444957471e-04  -7.8389340569667897e-05  -1.6077487887052586e-04  2.4160490045178626e-03  0.0000000000000000e+00  0.0000000000000000e+00  0.0000000000000000e+00  0.0000000000000000e+00  0.0000000000000000e+00  0.0000000000000000e+00  0.0000000000000000e+00  0.0000000000000000e+00  0.0000000000000000e+00  -2.1522066022778615e-03  -1.8049437252029498e-04  -5.2978362132637991e-05  -1.4787857083909352e-04  2.4755771609047093e-03  -8.3867578192262884e-02  -8.3921263387221029e-02  -8.3732617968672207e-02  -8.3421234774685660e-02  -8.3170333412594222e-02  0.0000000000000000e+00  0.0000000000000000e+00  0.0000000000000000e+00  0.0000000000000000e+00  0.0000000000000000e+00  0.0000000000000000e+00  0.0000000000000000e+00  0.0000000000000000e+00  0.0000000000000000e+00  -8.4520599443440689e-02  -8.4587377762731106e-02  -8.4401617770178544e-02  -8.4066642825922577e-02  -8.3798629018866547e-02  -1.6754125171880666e-01  -1.6753730477141593e-01  -1.6749110004314047e-01  -1.6744076786527681e-01  -1.6744681204158685e-01  0.0000000000000000e+00  0.0000000000000000e+00  0.0000000000000000e+00  0.0000000000000000e+00  0.0000000000000000e+00  0.0000000000000000e+00  0.0000000000000000e+00  0.0000000000000000e+00  0.0000000000000000e+00  -1.6880606501629511e-01  -1.6878636695911939e-01  -1.6872568648802744e-01  -1.6868290818495427e-01  -1.6870558090380577e-01  -2.5127582974852908e-01  -2.5126418057806421e-01  -2.5124041241243983e-01  -2.5121262111719589e-01  -2.5116379684661644e-01  0.0000000000000000e+00  0.0000000000000000e+00  0.0000000000000000e+00  0.0000000000000000e+00  0.0000000000000000e+00  0.0000000000000000e+00  0.0000000000000000e+00  0.0000000000000000e+00  0.0000000000000000e+00  -2.5318677381481569e-01  -2.5314534768993241e-01  -2.5312799838817801e-01  -2.5312095963923531e-01  -2.5311946663070861e-01  -3.3509668128409653e-01  -3.3509018045690153e-01  -3.3506554178648906e-01  -3.3499572015596774e-01  -3.3495925901593898e-01  0.0000000000000000e+00  0.0000000000000000e+00  0.0000000000000000e+00  0.0000000000000000e+00  0.0000000000000000e+00  0.0000000000000000e+00  0.0000000000000000e+00  0.0000000000000000e+00  0.0000000000000000e+00  -3.3756151489661512e-01  -3.3753835766803875e-01  -3.3751105887942873e-01  -3.3749823201765461e-01  -3.3748778968557819e-01  -4.1896696059395117e-01  -4.1897366400096686e-01  -4.1899451040284752e-01  -4.1905116416937638e-01  -4.1924515556318293e-01  0.0000000000000000e+00  -1.2398505268897100e+00  -1.2397983285907643e+00  -1.2401771026037431e+00  -1.2402860345603339e+00  -1.2401835147985418e+00  -1.2397683914572943e+00  -1.2385399357920859e+00  0.0000000000000000e+00  -4.2198267009523710e-01  -4.2188129894571841e-01  -4.2184189118980547e-01  -4.2183319218000354e-01  -4.2182077063515738e-01  -5.0280477588001216e-01  -5.0280755797304233e-01  -5.0280814834328669e-01  -5.0280757137701149e-01  -5.0282845657382769e-01  0.0000000000000000e+00  -1.2402179291731623e+00  -1.2405234706060249e+00  -1.2406886808982378e+00  -1.2406926745541005e+00  -1.2406131345790337e+00  -1.2404512323106121e+00  -1.2404242734411346e+00  0.0000000000000000e+00  -5.0612707669765289e-01  -5.0605359009794915e-01  -5.0611483307725502e-01  -5.0614419647128217e-01  -5.0614128507087686e-01  -5.8662860293298258e-01  -5.8662172881744890e-01  -5.8659810661789302e-01  -5.8656278552800190e-01  -5.8659740629842150e-01  0.0000000000000000e+00  -1.2415846052513289e+00  -1.2415958772760154e+00  -1.2415752157560977e+00  -1.2415490043469311e+00  -1.2414834927580223e+00  -1.2413674911299997e+00  -1.2412156992875665e+00  0.0000000000000000e+00  -5.9032651546929804e-01  -5.9035406498221776e-01  -5.9044941084122349e-01  -5.9050272930244341e-01  -5.9051425219837994e-01  -6.7046263666257278e-01  -6.7044656342639797e-01  -6.7041434799315613e-01  -6.7037641384776536e-01  -6.7040505321239396e-01  0.0000000000000000e+00  -1.2425389408132601e+00  -1.2426175672249453e+00  -1.2426433599658542e+00  -1.2426210588391002e+00  -1.2425485313151001e+00  -1.2424235884857135e+00  -1.2422554686490119e+00  0.0000000000000000e+00  -6.7480366955380955e-01  -6.7481232671053748e-01  -6.7490025666964004e-01  -6.7495383695428646e-01  -6.7497156992691754e-01  -7.5429103938273134e-01  -7.5426969846458269e-01  -7.5424955466917853e-01  -7.5424527278150499e-01  -7.5430484106797457e-01  0.0000000000000000e+00  -1.2437667820357181e+00  -1.2438608047454038e+00  -1.2438987893141735e+00  -1.2438836653749514e+00  -1.2438155206410768e+00  -1.2436914145479214e+00  -1.2435210017300276e+00  0.0000000000000000e+00  -7.5948693472259032e-01  -7.5942181102679296e-01  -7.5944123813237141e-01  -7.5946197254489678e-01  -7.5948110828083260e-01  -8.3805432193283280e-01  -8.3803230131651851e-01  -8.3803895651985350e-01  -8.3808983707586282e-01  -8.3819368514130099e-01  0.0000000000000000e+00  -1.2452185633640691e+00  -1.2453280691465105e+00  -1.2453790831800071e+00  -1.2453711954708993e+00  -1.2453075453544191e+00  -1.2451860557365924e+00  -1.2450077775371569e+00  0.0000000000000000e+00  -8.4415256413876738e-01  -8.4401178189487169e-01  -8.4394696274027070e-01  -8.4392289591724778e-01  -8.4394019872865222e-01  -9.2166862376812109e-01  -9.2164980889023529e-01  -9.2168909343913497e-01  -9.2179935712968730e-01  -9.2194319843469141e-01  0.0000000000000000e+00  -1.2469330855977550e+00  -1.2470423311579386e+00  -1.2470966369342964e+00  -1.2470932547845601e+00  -1.2470358862435114e+00  -1.2469230727287717e+00  -1.2467508987430789e+00  0.0000000000000000e+00  -9.2863272274822994e-01  -9.2842331628058405e-01  -9.2827362481719722e-01  -9.2820333338789618e-01  -9.2821572526486917e-01  -1.0050500857710736e+00  -1.0050373473394221e+00  -1.0051074533798787e+00  -1.0052681198907574e+00  -1.0054371379718841e+00  0.0000000000000000e+00  -1.2489087780320247e+00  -1.2489998319178728e+00  -1.2490455497222526e+00  -1.2490417122181527e+00  -1.2489919872312985e+00  -1.2488961463384070e+00  -1.2487458636568824e+00  0.0000000000000000e+00  -1.0127665052575348e+00  -1.0125079278406770e+00  -1.0122863053896713e+00  -1.0121754438670405e+00  -1.0121803294473859e+00  -1.0881349133191658e+00  -1.0881298926741638e+00  -1.0882233482380139e+00  -1.0884163474348889e+00  -1.0885896917824167e+00  0.0000000000000000e+00  -1.2511059557008468e+00  -1.2511624774859196e+00  -1.2511889635841371e+00  -1.2511804968190516e+00  -1.2511400771136287e+00  -1.2510687657525923e+00  -1.2509549077019539e+00  0.0000000000000000e+00  -1.0964312150692328e+00  -1.0961496563915023e+00  -1.0958786528578168e+00  -1.0957382112156309e+00  -1.0957341292938023e+00  -1.1708923504980420e+00  -1.1708957034592080e+00  -1.1710014390387498e+00  -1.1712035958243245e+00  -1.1713584501831635e+00  0.0000000000000000e+00  -1.2534563289156611e+00  -1.2534665722597895e+00  -1.2534661607128570e+00  -1.2534498916356911e+00  -1.2534197209680333e+00  -1.2533780129662235e+00  -1.2533111397775523e+00  0.0000000000000000e+00  -1.1795561958993988e+00  -1.1792801745259489e+00  -1.1789877520751084e+00  -1.1788320206076706e+00  -1.1788187388614693e+00  -1.2533324479789485e+00  -1.2533435479755490e+00  -1.2534487775045229e+00  -1.2536354103462826e+00  -1.2537506765694524e+00  0.0000000000000000e+00  -1.2558729903267474e+00  -1.2558315457964462e+00  -1.2558005101247984e+00  -1.2557746067992888e+00  -1.2557546096733709e+00  -1.2557440294222155e+00  -1.2557286844211450e+00  0.0000000000000000e+00  -1.2621289771280155e+00  -1.2618857206651586e+00  -1.2616015883895404e+00  -1.2614461951177880e+00  -1.2614245780177780e+00  -1.3355047663850530e+00  -1.3355226847032926e+00  -1.3356147569255923e+00  -1.3357631180547569e+00  -1.3358226577067205e+00  0.0000000000000000e+00  -1.2582637974211464e+00  -1.2581720970676993e+00  -1.2581108292521721e+00  -1.2580748191853124e+00  -1.2580636903315623e+00  -1.2580818121066861e+00  -1.2581158495168887e+00  0.0000000000000000e+00  -1.3441957877674240e+00  -1.3440078401601143e+00  -1.3437599054692491e+00  -1.3436200851179745e+00  -1.3435918690304804e+00  -1.4174959566105829e+00  -1.4175175299407174e+00  -1.4175857537046184e+00  -1.4176788661635102e+00  -1.4176737443473566e+00  0.0000000000000000e+00  -1.2605442054758225e+00  -1.2604099021644404e+00  -1.2603223911201800e+00  -1.2602769278668575e+00  -1.2602721420519634e+00  -1.2603128958589209e+00  -1.2603879171355035e+00  0.0000000000000000e+00  -1.4258545019194555e+00  -1.4257372987810419e+00  -1.4255493385352118e+00  -1.4254381852684377e+00  -1.4254056683154745e+00  -1.4994135966905378e+00  -1.4994401104003492e+00  -1.4994779290947433e+00  -1.4995027007601669e+00  -1.4994308542557757e+00  0.0000000000000000e+00  -1.2626475104484305e+00  -1.2624829269648632e+00  -1.2623756768163277e+00  -1.2623221258605266e+00  -1.2623201660225061e+00  -1.2623746755370453e+00  -1.2624773920177079e+00  0.0000000000000000e+00  -1.5072414646381955e+00  -1.5072046172829812e+00  -1.5070927265625116e+00  -1.5070198018849297e+00  -1.5069856880078243e+00  -1.5813869691271878e+00  -1.5814092473389572e+00  -1.5814077100985930e+00  -1.5813635640368047e+00  -1.5812353500243737e+00  0.0000000000000000e+00  -1.2645313233832749e+00  -1.2643510422634319e+00  -1.2642316768593571e+00  -1.2641717252651914e+00  -1.2641685032847927e+00  -1.2642263569007761e+00  -1.2643406913043735e+00  0.0000000000000000e+00  -1.5885271639365692e+00  -1.5885615749520752e+00  -1.5885340851594572e+00  -1.5885058050478131e+00  -1.5884728788794069e+00  -1.6635170579129841e+00  -1.6635399182268447e+00  -1.6635112203538074e+00  -1.6634085665260612e+00  -1.6632356774728705e+00  0.0000000000000000e+00  -1.2661794923251692e+00  -1.2659978377521814e+00  -1.2658735575072422e+00  -1.2658083641356643e+00  -1.2657994570367304e+00  -1.2658501878297517e+00  -1.2659598981417255e+00  0.0000000000000000e+00  -1.6698476946693122e+00  -1.6699655962909046e+00  -1.6700262563799602e+00  -1.6700422562491544e+00  -1.6700130520251988e+00  -1.7459195814007955e+00  -1.7459460577491248e+00  -1.7458818773767795e+00  -1.7457155628855783e+00  -1.7455114214199403e+00  0.0000000000000000e+00  -1.2675997059551962e+00  -1.2674283987309709e+00  -1.2673036283141481e+00  -1.2672344940711329e+00  -1.2672177002590359e+00  -1.2672535063973795e+00  -1.2673453133538490e+00  0.0000000000000000e+00  -1.7514293385823956e+00  -1.7515795573780721e+00  -1.7517069854733835e+00  -1.7517649655349743e+00  -1.7517417957822212e+00  -1.8286790053922419e+00  -1.8286696145127583e+00  -1.8285740586270729e+00  -1.8283961682742385e+00  -1.8282067013377461e+00  0.0000000000000000e+00  -1.2688271101296000e+00  -1.2686591209545348e+00  -1.2685342909344279e+00  -1.2684610926367033e+00  -1.2684371320790702e+00  -1.2684604230218908e+00  -1.2685362412794681e+00  0.0000000000000000e+00  -1.8332813831052608e+00  -1.8334893426089058e+00  -1.8336914314209203e+00  -1.8337839846590775e+00  -1.8337694851518362e+00  -1.9116852453123510e+00  -1.9117319751620825e+00  -1.9116594417724608e+00  -1.9114851301370066e+00  -1.9112930983672494e+00  0.0000000000000000e+00  -1.2698494923385761e+00  -1.2696983925350613e+00  -1.2695821892633496e+00  -1.2695158875805928e+00  -1.2694886897462729e+00  -1.2694669846541453e+00  -1.2694761103808510e+00  0.0000000000000000e+00  -1.9155585952280128e+00  -1.9158248319212461e+00  -1.9160645929309068e+00  -1.9161919866649078e+00  -1.9161889393997880e+00  -1.9953517739582194e+00  -1.9952928486504216e+00  -1.9951400311179244e+00  -1.9948923475624107e+00  -1.9946115135088061e+00  0.0000000000000000e+00  -1.2706380573571707e+00  -1.2706081470090147e+00  -1.2704458774038299e+00  -1.2703654713520405e+00  -1.2703686019222953e+00  -1.2705317896465727e+00  -1.2708359533073865e+00  0.0000000000000000e+00  -1.9985610891309502e+00  -1.9986936429939921e+00  -1.9989132419702011e+00  -1.9990064438030968e+00  -1.9990008826846264e+00  -2.0788170036671105e+00  -2.0788587304449977e+00  -2.0788033491381182e+00  -2.0786784721451435e+00  -2.0784995429830415e+00  0.0000000000000000e+00  -1.2725073545528554e+00  -1.2712898290243098e+00  -1.2708750770181350e+00  -1.2707710891275799e+00  -1.2708793552593527e+00  -1.2712551964371630e+00  -1.2712010960568021e+00  0.0000000000000000e+00  -2.0813171626672857e+00  -2.0817444071154014e+00  -2.0820247543331689e+00  -2.0822094539515197e+00  -2.0822448402862177e+00  -2.1633708811644539e+00  -2.1633307009598499e+00  -2.1632272580842340e+00  -2.1630239187940212e+00  -2.1629143307290333e+00  0.0000000000000000e+00  0.0000000000000000e+00  0.0000000000000000e+00  0.0000000000000000e+00  0.0000000000000000e+00  0.0000000000000000e+00  0.0000000000000000e+00  0.0000000000000000e+00  0.0000000000000000e+00  -2.1659134478678586e+00  -2.1659013202169128e+00  -2.1659224949423361e+00  -2.1658717866221289e+00  -2.1658484743308253e+00  -2.2471796386716245e+00  -2.2471673832740411e+00  -2.2471647893356734e+00  -2.2472418855058369e+00  -2.2471902587353685e+00  0.0000000000000000e+00  0.0000000000000000e+00  0.0000000000000000e+00  0.0000000000000000e+00  0.0000000000000000e+00  0.0000000000000000e+00  0.0000000000000000e+00  0.0000000000000000e+00  0.0000000000000000e+00  -2.2492796534736090e+00  -2.2492485006638190e+00  -2.2492831101842339e+00  -2.2494129909743914e+00  -2.2494179349712247e+00  -2.3320283461953508e+00  -2.3320509833640464e+00  -2.3320006737369914e+00  -2.3317729812751447e+00  -2.3317572860393234e+00  0.0000000000000000e+00  0.0000000000000000e+00  0.0000000000000000e+00  0.0000000000000000e+00  0.0000000000000000e+00  0.0000000000000000e+00  0.0000000000000000e+00  0.0000000000000000e+00  0.0000000000000000e+00  -2.3334987033761485e+00  -2.3334981082995463e+00  -2.3334422527376373e+00  -2.3332191647547171e+00  -2.3332099979282299e+00  -2.4165049532496252e+00  -2.4163502292204329e+00  -2.4161262634388425e+00  -2.4162330320455916e+00  -2.4164440506550595e+00  0.0000000000000000e+00  0.0000000000000000e+00  0.0000000000000000e+00  0.0000000000000000e+00  0.0000000000000000e+00  0.0000000000000000e+00  0.0000000000000000e+00  0.0000000000000000e+00  0.0000000000000000e+00  -2.4172479913772249e+00  -2.4170767428839390e+00  -2.4168518788988007e+00  -2.4169540041184416e+00  -2.4171586097360143e+00  -2.5038583904884453e+00  -2.4996722361069645e+00  -2.4999814631800823e+00  -2.5002500132436127e+00  -2.4974913997607340e+00  0.0000000000000000e+00  0.0000000000000000e+00  0.0000000000000000e+00  0.0000000000000000e+00  0.0000000000000000e+00  0.0000000000000000e+00  0.0000000000000000e+00  0.0000000000000000e+00  0.0000000000000000e+00  -2.5037596412564755e+00  -2.4996834517367752e+00  -2.4999865412761384e+00  -2.5002520026322901e+00  -2.4975463458819176e+00  </DataArray> 
</PointData> 
</Piece>
</UnstructuredGrid>
</VTKFile>