<?xml version="1.0"?>
<VTKFile type="UnstructuredGrid"  version="0.1"  >
<UnstructuredGrid>
<Piece  NumberOfPoints="589" NumberOfCells="1080">
<Points>
<DataArray  type="Float64"  NumberOfComponents="3"  format="ascii">-9 0 0  -8 0 0  -7 0 0  -6 0 0  -5 0 0  -4 0 0  -3 0 0  -2 0 0  -1 0 0  0 0 0  1 0 0  2 0 0  3 0 0  4 0 0  5 0 0  6 0 0  7 0 0  8 0 0  9 0 0  -9 2 0  -8.000002616591649 1.999996489437536 0  -7.000005511162831 1.999993359803827 0  -6.000009269145527 1.999990914275377 0  -5.000015172271224 1.999989265958358 0  -4.000009578283909 1.999992125298588 0  -3.000003708947093 1.999994561180627 0  -2.000000661664784 1.999996727532215 0  -0.9999997691270283 1.999998432175306 0  -2.209350070098055e-07 1.999999183104205 0  0.9999992182618709 1.999998693436703 0  1.999999740478176 1.999997085312883 0  3.000002156090672 1.999995089264549 0  4.000006730286385 1.999992912718149 0  5.000013229782657 1.999991937330305 0  6.000007982914993 1.999992425798279 0  7.000004717980699 1.999994219068227 0  8.000002237233318 1.999996887546599 0  9 2 0  -9 4 0  -8.000004121245002 3.999991455226431 0  -7.000007568675901 3.999983983237578 0  -6.000009957701196 3.999978639732566 0  -5.000011386599459 3.999976442698662 0  -4.000003560833394 3.999977663239763 0  -2.999998117162689 3.999984101703079 0  -1.999996265956691 3.999992464881548 0  -0.9999975338514611 3.999999161867809 0  -5.22153419661576e-07 4.000001883869436 0  0.9999964028250127 3.999999857582762 0  1.999994845858222 3.999994277501627 0  2.999996400900313 3.999986700286144 0  4.000001522781163 3.999979100581268 0  5.000008970366853 3.999976571137693 0  6.00000803806375 3.999979632428947 0  7.000006299189756 3.999984937370108 0  8.000003500380494 3.999991999263037 0  9 4 0  -9 6 0  -8.000008321079537 5.999982130173669 0  -7.000013859812509 5.999966093005791 0  -6.000014486786445 5.999953779553915 0  -5.000009582519172 5.999947016389253 0  -3.999994856070173 5.999956392543702 0  -2.999987887920457 5.999975966074479 0  -1.999989909898939 5.999996474016298 0  -0.9999957464735822 6.000007905712073 0  -1.659390610177714e-06 6.000010268478369 0  0.9999931033085721 6.000006619049074 0  1.999989270992909 5.999996510637177 0  2.999988152714143 5.99997948840575 0  3.999991964944444 5.999961877696679 0  5.000004464915526 5.999953281175484 0  6.000011319507819 5.999957864697432 0  7.000012120073218 5.999968628144318 0  8.000007569703712 5.999983355873965 0  9 6 0  -9 8 0  -8.000023650213457 7.999965475802475 0  -7.000039797522926 7.999933309313773 0  -6.000041140612633 7.999906719593573 0  -5.000021355270278 7.999891041138529 0  -3.999993518755056 7.999934036912945 0  -2.999998069817388 7.999984574150493 0  -2.000007920215099 8.000009313838806 0  -1.000008361920028 8.000012301222464 0  -1.823314973545139e-06 8.000013172472878 0  1.000003231502139 8.000015517977467 0  2.000001815643314 8.000005306901784 0  2.999990538621566 7.999987776567417 0  3.999987281501391 7.999944933362796 0  5.000014590615882 7.999896747810911 0  6.000038816127264 7.999911379134902 0  7.000039343615011 7.999936463226529 0  8.000023715420967 7.999967048002086 0  9 8 0  -9 10 0  -8.000068984556144 9.999939395800888 0  -7.00012494340507 9.999878226562261 0  -6.000152301635538 9.99981602776808 0  -5.000129323715778 9.999752565117836 0  -4.000085623666922 9.99989028371802 0  -3.000091751451274 10.00000892155027 0  -2.000073207078522 9.99998915958356 0  -1.000034449388711 9.999982823225823 0  -5.736021737301169e-06 9.999981291358875 0  1.000022708155909 9.999981362453742 0  2.000060195041567 9.999980479532008 0  3.000093830171292 10.00002178105596 0  4.000090878138728 9.999910567798363 0  5.000139801575895 9.999764353181876 0  6.000161091529681 9.999823092820041 0  7.000131181496399 9.999882301381259 0  8.000072204509491 9.999941274960953 0  9 10 0  -9 12 0  -8.000166392450399 11.99991558687038 0  -7.000324444143732 11.99982728034688 0  -6.000464715807542 11.99973042317371 0  -5.000575535626675 11.99961851651564 0  -4.000553456032225 11.99986792672827 0  -3.000572730204067 12.00011490596839 0  -2.000394275758489 12.0000848558149 0  -1.000196620755469 12.00006844529585 0  8.334506122668661e-06 12.00006493084436 0  1.000215490337682 12.00007479162603 0  2.000420652321397 12.00010101050062 0  3.000615253660034 12.00015109767765 0  4.000595410620967 11.99988709207505 0  5.000609218720919 11.99962103384924 0  6.000488102369872 11.9997329542624 0  7.000339254754882 11.99982909396222 0  8.000173583668682 11.99991650511382 0  9 12 0  -9 14 0  -8.000297103478749 13.99990736368122 0  -7.000594969448113 13.99981055773106 0  -6.000894774336039 13.99970504708839 0  -5.001198805194627 13.99958558454034 0  -4.001201919702092 13.99987517394896 0  -3.001202828713356 14.00016850557249 0  -2.000792259156267 14.00012601631974 0  -1.000388043351601 14.00010250298037 0  1.361496813031284e-05 14.00009508751549 0  1.000416332506846 14.00010281055368 0  2.000823514232203 14.00012610028808 0  3.001237984514984 14.00016624443681 0  4.00124242444358 13.99987630256686 0  5.001244023443625 13.9995882520594 0  6.000925896378452 13.99970598500168 0  7.000614538796714 13.99981082844336 0  8.000306561225655 13.99990741548617 0  9 14 0  -9 16 0  -8.000424683408911 15.99991582693237 0  -7.000857605780737 15.99982867064721 0  -6.001307714778724 15.99973550374141 0  -5.00178544479485 15.99963326761248 0  -4.001802239723339 15.99987855383595 0  -3.001785662821939 16.00012248433288 0  -2.001165036004504 16.00009133776649 0  -1.000569328291985 16.00007222099408 0  1.466027113464848e-05 16.00006473680183 0  1.00059941223739 16.00006860805492 0  2.001197422528684 16.00008381801332 0  3.001821993545914 16.00011054675055 0  4.001840705077559 15.99986835232223 0  5.001825067359327 15.99962595327929 0  6.001336375283147 15.9997306040042 0  7.00087615915293 15.99982560985234 0  8.000433787528067 15.99991434718673 0  9 16 0  -9 18 0  -8.000519222944048 17.99993622488364 0  -7.001051343209123 17.99987083396219 0  -6.001609927619007 17.99980224994396 0  -5.002209891762711 17.99972898647936 0  -4.002235095104243 17.99987884477421 0  -3.002210348897986 18.00002849522788 0  -2.001438399674569 18.0000085915561 0  -1.00070386079981 17.99999546213289 0  1.26458023412546e-05 17.99998901713415 0  1.000729568545399 17.99998910226236 0  2.001465330837445 17.99999550979611 0  3.002239223274517 18.00000794105026 0  4.002265441770339 17.99986223620352 0  5.002240983317651 17.99971697322606 0  6.001632683344397 17.99979382105212 0  7.001066233773731 17.9998654767173 0  8.000526581684355 17.9999336209578 0  9 18 0  -9 20 0  -8.000562095195356 19.99996308437245 0  -7.001139070224622 19.99992577102458 0  -6.001746369082312 19.99988771758031 0  -5.002400566038877 19.99984869419767 0  -4.002429128691507 19.99987817135009 0  -3.002400652790065 19.99990745394883 0  -2.001562415507997 19.99989878487574 0  -1.000766404236777 19.99989200358446 0  8.960062333396585e-06 19.99988721481989 0  1.000784491696298 19.99988434329369 0  2.001580992178657 19.99988314001912 0  3.002420005048478 19.99988316832759 0  4.002448965977969 19.99985886172143 0  5.002420727634855 19.99983487411571 0  6.00176131859635 19.99987781097238 0  7.001148950094942 19.99991938517355 0  8.000567008145952 19.99995995680044 0  8.999999999996408 20.00000000000227 0  -9 22 0  -8.000545376952251 21.99999153280418 0  -7.001105350709518 21.99998366740659 0  -6.001694965440129 21.99997706416888 0  -5.002330158013049 21.99997250159286 0  -4.002357920076862 21.99987639685103 0  -3.00233016040197 21.99978011214428 0  -2.001517821549744 21.99978143782919 0  -1.000746499129898 21.99978058702587 0  4.604125192159222e-06 21.99977775566235 0  1.000755676528867 21.99977292224421 0  2.001526895461148 21.99976585221979 0  3.002339025701411 21.99975609441859 0  4.002366542211837 21.99985739657739 0  5.002338685190152 21.99995891635337 0  6.001701533523421 21.9999672496603 0  7.001109805849088 21.99997730176244 0  8.000547626050668 21.999988403077 0  9 22 0  -9 24 0  -8.000470199607644 24.00001757361099 0  -7.000952914703099 24.0000365144015 0  -6.001460996660289 24.00005824659034 0  -5.002007950604366 24.00008431027504 0  -4.002031710354651 23.999873803184 0  -3.002008050412807 23.99966316568484 0  -2.001309445170386 23.99967278389547 0  -1.000645848294328 23.99967708060707 0  3.781744706125987e-07 23.99967629249578 0  1.000646419974683 23.9996704344534 0  2.001309452594746 23.99965930044753 0  3.002007083192702 23.99964246243404 0  4.002029925898327 23.99985749929766 0  5.002005784337611 24.00007270214711 0  6.001459806798074 24.00004981092303 0  7.000952324013533 24.00003101977088 0  8.00046996295368 24.0000148651825 0  9 24 0  -9 26 0  -8.000344877427979 26.00003814675547 0  -7.000698860240006 26.00007819512906 0  -6.001071277033172 26.0001221022227 0  -5.001471889297568 26.00017193710069 0  -4.001489282313751 25.99987067293403 0  -3.001472236592167 25.9995693278986 0  -2.000961307706046 25.99958539103785 0  -1.000475839061936 25.99959388716682 0  -3.097598167240574e-06 25.99959508236891 0  1.000469347439455 25.99958902300664 0  2.000953916678801 25.99957553578482 0  3.001463312321575 25.99955422767291 0  4.001479134777345 25.99985882178301 0  5.001461157791212 26.00016352933494 0  6.001063857611174 26.00011597173945 0  7.000694207884281 26.00007419195058 0  8.000342637882424 26.0000361703665 0  9 26 0  -9 28 0  -8.000183041022904 28.00005111482836 0  -7.000370899363852 28.00010444162707 0  -6.000568508267267 28.00016224671446 0  -5.000781015719085 28.00022690534637 0  -4.000790487822463 27.99986730325994 0  -3.000781720048578 27.99950767668974 0  -2.000511594680691 27.99952823905356 0  -1.000255040770531 27.99953986989881 0  -5.376993099239875e-06 27.99954286281009 0  1.000243921824333 27.9995372945037 0  2.000499369947066 27.99952302465798 0  3.000767616610704 27.99949969617284 0  4.000774919153642 27.99986105879913 0  5.00076474630526 28.00022249349287 0  6.000557055886937 28.00015902329026 0  7.000363615601853 28.00010233352894 0
[...]
<PointData  Scalars="f_44-1"> 
<DataArray  type="Float64"  Name="f_44-1"  format="ascii">6.9613003064417360e-04  7.4411208173106943e-05  4.2912950100755522e-05  9.3671321879797560e-05  -8.3283874943850173e-04  0.0000000000000000e+00  0.0000000000000000e+00  0.0000000000000000e+00  0.0000000000000000e+00  0.0000000000000000e+00  0.0000000000000000e+00  0.0000000000000000e+00  0.0000000000000000e+00  0.0000000000000000e+00  7.1021120195488877e-04  7.4448358658653208e-05  4.3448400349146272e-05  9.3399511391087942e-05  -8.5482218023168069e-04  3.1672395198146533e-02  3.1707552555459727e-02  3.1692415799759004e-02  3.1608154237314855e-02  3.1557690658424287e-02  0.0000000000000000e+00  0.0000000000000000e+00  0.0000000000000000e+00  0.0000000000000000e+00  0.0000000000000000e+00  0.0000000000000000e+00  0.0000000000000000e+00  0.0000000000000000e+00  0.0000000000000000e+00  3.1779690288638279e-02  3.1814095916188077e-02  3.1797454823963470e-02  3.1711053553902691e-02  3.1660659446364259e-02  6.3392606083651173e-02  6.3390525152472940e-02  6.3371633110244810e-02  6.3363904883170466e-02  6.3373948677963504e-02  0.0000000000000000e+00  0.0000000000000000e+00  0.0000000000000000e+00  0.0000000000000000e+00  0.0000000000000000e+00  0.0000000000000000e+00  0.0000000000000000e+00  0.0000000000000000e+00  0.0000000000000000e+00  6.3601053637447835e-02  6.3597381689338067e-02  6.3577172698871851e-02  6.3570108333596997e-02  6.3585702594801424e-02  9.5089543021896358e-02  9.5086885315751546e-02  9.5084386187796008e-02  9.5080153952411151e-02  9.5065621642957204e-02  0.0000000000000000e+00  0.0000000000000000e+00  0.0000000000000000e+00  0.0000000000000000e+00  0.0000000000000000e+00  0.0000000000000000e+00  0.0000000000000000e+00  0.0000000000000000e+00  0.0000000000000000e+00  9.5413837044432903e-02  9.5393783082280012e-02  9.5380629294048294e-02  9.5373338409616315e-02  9.5369315903882507e-02  1.2679669685930203e-01  1.2679597639178192e-01  1.2680104131653142e-01  1.2679952399775324e-01  1.2679589800036772e-01  0.0000000000000000e+00  0.0000000000000000e+00  0.0000000000000000e+00  0.0000000000000000e+00  0.0000000000000000e+00  0.0000000000000000e+00  0.0000000000000000e+00  0.0000000000000000e+00  0.0000000000000000e+00  1.2721024657969981e-01  1.2718544848637725e-01  1.2715832091955853e-01  1.2714184163184408e-01  1.2713800879783205e-01  1.5847160094366072e-01  1.5847478254230929e-01  1.5850587171732736e-01  1.5856972993738147e-01  1.5869189614795565e-01  0.0000000000000000e+00  4.4107663974588623e-01  4.4107755553089850e-01  4.4125279108362125e-01  4.4131070900375813e-01  4.4125897907659750e-01  4.4106596638525358e-01  4.4058082954805755e-01  0.0000000000000000e+00  1.5901719540444720e-01  1.5894373740461831e-01  1.5888724746688321e-01  1.5885725677233092e-01  1.5885195375419661e-01  1.9004222811278548e-01  1.9004692564800360e-01  1.9009527264871090e-01  1.9018505381189768e-01  1.9029027143072827e-01  0.0000000000000000e+00  4.4119590308969903e-01  4.4138849671317110e-01  4.4150085392577215e-01  4.4152044081731434e-01  4.4147396462851846e-01  4.4136756229654978e-01  4.4127988077354358e-01  0.0000000000000000e+00  1.9071866884306327e-01  1.9059070464526146e-01  1.9051764546719155e-01  1.9047508836117566e-01  1.9046918508625488e-01  2.2144016861435764e-01  2.2144637536512457e-01  2.2151491639185464e-01  2.2164434044371040e-01  2.2183273837638592e-01  0.0000000000000000e+00  4.4178081825464316e-01  4.4193448302283106e-01  4.4201834710069177e-01  4.4203987377483167e-01  4.4198808704931847e-01  4.4186137667841285e-01  4.4166016442479267e-01  0.0000000000000000e+00  2.2228780377914997e-01  2.2212085606476131e-01  2.2200841572174063e-01  2.2194521969040584e-01  2.2193772361740463e-01  2.5259142404038087e-01  2.5259996107204663e-01  2.5269071115659142e-01  2.5286324688521261e-01  2.5311669246436103e-01  0.0000000000000000e+00  4.4245053563985076e-01  4.4269547469061266e-01  4.4283402879905631e-01  4.4287047732876234e-01  4.4280507389238932e-01  4.4263669424887581e-01  4.4236256902566901e-01  0.0000000000000000e+00  2.5368934593949793e-01  2.5344595634848771e-01  2.5328491211192916e-01  2.5319783572404020e-01  2.5318779242583656e-01  2.8342019763694593e-01  2.8343135953466897e-01  2.8354126568640065e-01  2.8375024383699554e-01  2.8406192899507432e-01  0.0000000000000000e+00  4.4356944636548934e-01  4.4387485770320206e-01  4.4404958704433739e-01  4.4409970813109539e-01  4.4402699982131388e-01  4.4382966635584092e-01  4.4350302754735965e-01  0.0000000000000000e+00  2.8478062068103216e-01  2.8446784227363486e-01  2.8426052812981861e-01  2.8415028756389693e-01  2.8413706842524833e-01  3.1386487784131567e-01  3.1387810336598271e-01  3.1399885459174015e-01  3.1422764061500891e-01  3.1457065460141226e-01  0.0000000000000000e+00  4.4522020073981705e-01  4.4555873950893538e-01  4.4575429403744243e-01  4.4581352318784534e-01  4.4573898159512643e-01  4.4552842384021135e-01  4.4517500129186266e-01  0.0000000000000000e+00  3.1543219741335166e-01  3.1508141785478300e-01  3.1484858034827856e-01  3.1472532726619556e-01  3.1471005612768299e-01  3.4389444309307693e-01  3.4390845655833452e-01  3.4402816243251005e-01  3.4425365154866383e-01  3.4459199964515314e-01  0.0000000000000000e+00  4.4746230698713635e-01  4.4779755147135009e-01  4.4799253948057016e-01  4.4805370709421222e-01  4.4798368933777316e-01  4.4778003992180798e-01  4.4743558918535531e-01  0.0000000000000000e+00  3.4558680037250122e-01  3.4523518972313311e-01  3.4500140006096414e-01  3.4487802487355990e-01  3.4486223130846527e-01  3.7351900948696876e-01  3.7353217612831802e-01  3.7363782370651388e-01  3.7383529457430154e-01  3.7413122293212531e-01  0.0000000000000000e+00  4.5028869989052756e-01  4.5058270391150612e-01  4.5075456375153261e-01  4.5080984873753804e-01  4.5075077027814053e-01  4.5057497833640109e-01  4.5027618133192010e-01  0.0000000000000000e+00  3.7523934647324936e-01  3.7492611958619032e-01  3.7471745644278348e-01  3.7460765722719247e-01  3.7459308854753792e-01  4.0279252794705789e-01  4.0280319595926273e-01  4.0288282497776179e-01  4.0302988394409589e-01  4.0324952512687406e-01  0.0000000000000000e+00  4.5362610362672051e-01  4.5384511402100958e-01  4.5397376523983568e-01  4.5401607994481624e-01  4.5397356343454098e-01  4.5384425548157875e-01  4.5362362834872338e-01  0.0000000000000000e+00  4.0444355294179191e-01  4.0420389553439368e-01  4.0404384122778314e-01  4.0395997363770747e-01  4.0394826782475762e-01  4.3180830791799080e-01  4.3181508426613946e-01  4.3185949769226506e-01  4.3193917515189684e-01  4.3205707006671812e-01  0.0000000000000000e+00  4.5734391812024139e-01  4.5746251113507358e-01  4.5753275623508560e-01  4.5755660084381755e-01  4.5753468980912815e-01  4.5746570216131338e-01  4.5734740759627135e-01  0.0000000000000000e+00  4.3330444797335088e-01  4.3316498602803633e-01  4.3307134305787637e-01  4.3302276260406891e-01  4.3301520178857988e-01  4.6068896016776517e-01  4.6069090791907774e-01  4.6069486544876720e-01  4.6069776610857627e-01  4.6069999042098148e-01  0.0000000000000000e+00  4.6126827901199463e-01  4.6127237304588747e-01  4.6127567575519191e-01  4.6127774145675488e-01  4.6127831911860295e-01  4.6127691203066645e-01  4.6127376434381889e-01  0.0000000000000000e+00  4.6196510994120943e-01  4.6194085961894649e-01  4.6192371600568460e-01  4.6191568169583819e-01  4.6191303355561708e-01  4.8957259311577239e-01  4.8956934575500133e-01  4.8953219670023418e-01  4.8945761502923257e-01  4.8934336581085047e-01  0.0000000000000000e+00  4.6520139709843777e-01  4.6508987213481001e-01  4.6502529218250555e-01  4.6500477500012505e-01  4.6502723818790315e-01  4.6509310812394228e-01  4.6520496179819715e-01  0.0000000000000000e+00  4.9058968448151380e-01  4.9068250802746227e-01  4.9074321396073378e-01  4.9077634410254667e-01  4.9077878645858131e-01  5.1859720522500785e-01  5.1858899690309612e-01  5.1851474437025658e-01  5.1837073494025732e-01  5.1815238157203602e-01  0.0000000000000000e+00  4.6894378569723566e-01  4.6872862627563983e-01  4.6860288307883696e-01  4.6856149981845507e-01  4.6860271841113316e-01  4.6872787824314754e-01  4.6894148960272275e-01  0.0000000000000000e+00  5.1934451386743941e-01  5.1954311936300357e-01  5.1967429735473358e-01  5.1974460144417467e-01  5.1975173261096641e-01  5.4788518463244973e-01  5.4787280955511186e-01  5.4776962622303982e-01  5.4757206066226816e-01  5.4727368899428774e-01  0.0000000000000000e+00  4.7231708001910722e-01  4.7202199340070400e-01  4.7184862543364642e-01  4.7179033321976527e-01  4.7184491569290066e-01  4.7201447895852189e-01  4.7230489377402451e-01  0.0000000000000000e+00  5.4837949900457117e-01  5.4866093565150331e-01  5.4884752647374357e-01  5.4894696667606013e-01  5.4895788541970769e-01  5.7752974083102004e-01  5.7751443915131551e-01  5.7739367803824482e-01  5.7716439396212948e-01  5.7681897791484837e-01  0.0000000000000000e+00  4.7518488577753870e-01  4.7484240056123456e-01  4.7464003845953889e-01  4.7457046769630695e-01  4.7463133607320251e-01  4.7482522724404747e-01  4.7515868908470077e-01  0.0000000000000000e+00  5.7781159619462386e-01  5.7814415220337434e-01  5.7836536796935956e-01  5.7848293968787878e-01  5.7849639651834739e-01  6.0758483830179821e-01  6.0756813506230201e-01  6.0744286882598142e-01  6.0720689978924780e-01  6.0685217211682718e-01  0.0000000000000000e+00  4.7746886720093212e-01  4.7711607351146357e-01  4.7690592903458795e-01  4.7683157796926651e-01  4.7689082894292495e-01  4.7708622054634348e-01  4.7742437989734904e-01  0.0000000000000000e+00  6.0771222730346930e-01  6.0805955797618205e-01  6.0829167598373746e-01  6.0841491927171898e-01  6.0842950779368621e-01  6.3806034449632187e-01  6.3804379771879283e-01  6.3792687199504428e-01  6.3770870764649701e-01  6.3738161760771084e-01  0.0000000000000000e+00  4.7915745558176037e-01  4.7883071235506064e-01  4.7863330346966804e-01  4.7856064314509744e-01  4.7861097039755801e-01  4.7878606324879536e-01  4.7909188381741102e-01  0.0000000000000000e+00  6.3810011002380007e-01  6.3842631847791809e-01  6.3864619251849253e-01  6.3876311684041576e-01  6.3877752148216649e-01  6.6892272205785852e-01  6.6890790092782659e-01  6.6881040902223809e-01  6.6863229560330817e-01  6.6836591270713808e-01  0.0000000000000000e+00  4.8030756805883446e-01  4.8003311645678881e-01  4.7986450867389635e-01  4.7979910494379779e-01  4.7983582119065293e-01  4.7997490788138386e-01  4.8022049164457975e-01  0.0000000000000000e+00  6.6893981738658270e-01  6.6921604230286380e-01  6.6940553181868989e-01  6.6950681994325989e-01  6.6952007082895570e-01  7.0010548163110675e-01  7.0009258644321393e-01  7.0001729759157949e-01  6.9988523165675642e-01  6.9969152743879037e-01  0.0000000000000000e+00  4.8101450187072281e-01  4.8081300488714845e-01  4.8068611178885218e-01  4.8063430138462176e-01  4.8065596755356332e-01  4.8074021174910614e-01  4.8089452497209362e-01  0.0000000000000000e+00  7.0014744821304786e-01  7.0036319561722493e-01  7.0051227014777362e-01  7.0059280322943207e-01  7.0060436183244068e-01  7.3153064365427845e-01  7.3151989214417712e-01  7.3146640959878650e-01  7.3137537178042300e-01  7.3122274423806899e-01  0.0000000000000000e+00  4.8139672990877042e-01  4.8130867022815155e-01  4.8120227691613848e-01  4.8115582390072159e-01  4.8117543996624312e-01  4.8128767572708292e-01  4.8147996260648002e-01  0.0000000000000000e+00  7.3165455446272987e-01  7.3178305352525241e-01  7.3189034224576721e-01  7.3194937385474912e-01  7.3195892752798686e-01  7.6312646531098094e-01  7.6311783324846816e-01  7.6308038807388012e-01  7.6301239658075681e-01  7.6292396516751260e-01  0.0000000000000000e+00  4.8209449307689928e-01  4.8161089456619965e-01  4.8141883345557923e-01  4.8136711724963999e-01  4.8142465946194057e-01  4.8159856564859954e-01  4.8160021760813959e-01  0.0000000000000000e+00  7.6325226416118341e-01  7.6338856456490756e-01  7.6346335813572708e-01  7.6350151225538321e-01  7.6350806207564759e-01  7.9483444839955641e-01  7.9482894577052710e-01  7.9480875882268265e-01  7.9477674106778784e-01  7.9474717016534480e-01  0.0000000000000000e+00  0.0000000000000000e+00  0.0000000000000000e+00  0.0000000000000000e+00  0.0000000000000000e+00  0.0000000000000000e+00  0.0000000000000000e+00  0.0000000000000000e+00  0.0000000000000000e+00  7.9515952288286884e-01  7.9516204318977302e-01  7.9516659296077452e-01  7.9517561915539603e-01  7.9517684932469634e-01  8.2660595302965512e-01  8.2660021346149737e-01  8.2659153015741893e-01  8.2657677717022970e-01  8.2655504419948078e-01  0.0000000000000000e+00  0.0000000000000000e+00  0.0000000000000000e+00  0.0000000000000000e+00  0.0000000000000000e+00  0.0000000000000000e+00  0.0000000000000000e+00  0.0000000000000000e+00  0.0000000000000000e+00  8.2690685971377553e-01  8.2689257495666946e-01  8.2688987549294202e-01  8.2688885254123357e-01  8.2688679537474497e-01  8.5839181681816290e-01  8.5840848319310947e-01  8.5840262085309527e-01  8.5838120531295403e-01  8.5837661283876909e-01  0.0000000000000000e+00  0.0000000000000000e+00  0.0000000000000000e+00  0.0000000000000000e+00  0.0000000000000000e+00  0.0000000000000000e+00  0.0000000000000000e+00  0.0000000000000000e+00  0.0000000000000000e+00  8.5860447912930060e-01  8.5861578057672461e-01  8.5860996336964068e-01  8.5859072810707826e-01  8.5858861763528638e-01  8.9031963283229132e-01  8.9027841864148827e-01  8.9019404506344624e-01  8.9018110834922171e-01  8.9022138041708465e-01  0.0000000000000000e+00  0.0000000000000000e+00  0.0000000000000000e+00  0.0000000000000000e+00  0.0000000000000000e+00  0.0000000000000000e+00  0.0000000000000000e+00  0.0000000000000000e+00  0.0000000000000000e+00  8.9042383911782597e-01  8.9038205252707170e-01  8.9030048183264454e-01  8.9028939722101930e-01  8.9033047695970113e-01  9.2289430136782813e-01  9.2190039902221876e-01  9.2194390167343443e-01  9.2191778057853391e-01  9.2126531859509175e-01  0.0000000000000000e+00  0.0000000000000000e+00  0.0000000000000000e+00  0.0000000000000000e+00  0.0000000000000000e+00  0.0000000000000000e+00  0.0000000000000000e+00  0.0000000000000000e+00  0.0000000000000000e+00  9.2286489741706579e-01  9.2190058653469631e-01  9.2194464029676559e-01  9.2191773747445727e-01  9.2128292130993639e-01  </DataArray> 
</PointData> 
</Piece>
</UnstructuredGrid>
</VTKFile>