<?xml version="1.0"?>
<VTKFile type="UnstructuredGrid"  version="0.1"  >
<UnstructuredGrid>
<Piece  NumberOfPoints="589" NumberOfCells="1080">
<Points>
<DataArray  type="Float64"  NumberOfComponents="3"  format="ascii">-9 0 0  -8 0 0  -7 0 0  -6 0 0  -5 0 0  -4 0 0  -3 0 0  -2 0 0  -1 0 0  0 0 0  1 0 0  2 0 0  3 0 0  4 0 0  5 0 0  6 0 0  7 0 0  8 0 0  9 0 0  -9 2 0  -8.000001768338537 1.999997837026932 0  -7.000003742032494 1.999995876988544 0  -6.000006315471686 1.999994276997747 0  -5.000010316695149 1.99999308107197 0  -4.000006827943499 1.999995004031067 0  -3.000003090014417 1.999996490741589 0  -2.000001039366273 1.999997738952694 0  -1.000000224884007 1.999998714633932 0  -1.785209807145903e-07 1.999999141241668 0  0.9999998041636167 1.999998864930269 0  2.000000400146304 1.99999795132481 0  3.000002079415266 1.999996796235297 0  4.000005013375421 1.999995490379224 0  5.000009118308834 1.999994788441962 0  6.00000552630174 1.999995230056195 0  7.000003257033519 1.999996410856239 0  8.000001536755137 1.999998081811491 0  9 2 0  -9 4 0  -8.000002715246389 3.999994862339423 0  -7.00000508507989 3.99999031380607 0  -6.000006919794731 3.999986937746365 0  -5.000008283651663 3.999985305293661 0  -4.000003588572694 3.999986039661672 0  -3.000000198096714 3.999989703774661 0  -1.999998783903102 3.999994460597436 0  -0.9999990866161784 3.99999824618006 0  -3.510666290958278e-07 3.999999785430391 0  0.9999983332875617 3.999998653521859 0  1.999997865245547 3.99999550554191 0  2.999999132244028 3.999991210221852 0  4.000002367946765 3.999986885706393 0  5.000006823633771 3.999985358531727 0  6.000005761626728 3.999987503384205 0  7.000004318094941 3.999990861116432 0  8.000002339404427 3.99999517471545 0  9 4 0  -9 6 0  -8.000005043781545 5.999989531241931 0  -7.000008568604728 5.999980060817294 0  -6.000009407563199 5.999972624144729 0  -5.000007213295524 5.999968233145184 0  -3.99999871074788 5.999973440515428 0  -2.99999450472593 5.999984355825657 0  -1.999995245896168 5.999995794856944 0  -0.9999981018535213 6.000002195786256 0  -1.009575551451158e-06 6.000003548002477 0  0.9999964634444571 6.000001500020133 0  1.99999473013612 5.999995843710571 0  2.999994480378773 5.999986353893041 0  3.999996932522519 5.999976536578134 0  5.000004189932731 5.999971763997124 0  6.000007523060615 5.999974925268454 0  7.000007519773039 5.999981488000895 0  8.000004584874784 5.999990220967857 0  9 6 0  -9 8 0  -8.000013447659759 7.99998020722799 0  -7.000022795455768 7.999961673262506 0  -6.000024028195823 7.999946128276827 0  -5.000013602854409 7.999936461946222 0  -3.999997995875887 7.999960257876349 0  -3.000000106414463 7.999988237472615 0  -2.000005170415348 8.000002028846483 0  -1.000005063511429 8.000003838319907 0  -1.140352487143676e-06 8.000004374918612 0  1.000001984883009 8.0000056045498 0  2.000001503947546 7.999999904292749 0  2.999995652269556 7.999990017444153 0  3.999994346855934 7.999966288948894 0  5.000009794320365 7.999939694967956 0  6.000022629885521 7.999948741883268 0  7.000022447572019 7.999963434395839 0  8.000013429962802 7.999981083310271 0  9 8 0  -9 10 0  -8.000038249053937 9.999965849580603 0  -7.000069480502243 9.999931332225723 0  -6.000085279158501 9.999896121793103 0  -5.000073853957973 9.999859983324924 0  -4.000049722467819 9.999935314219385 0  -3.000052312827171 10.00000034113113 0  -2.000041363107339 9.999990042411433 0  -1.00001959874318 9.999986740596878 0  -3.313755589588196e-06 9.999985949125596 0  1.000012826397187 9.999985944495199 0  2.000033886270304 9.999985324448279 0  3.000053199820268 10.00000734410404 0  4.000052274129079 9.999946323229969 0  5.000079156580465 9.999866423102139 0  6.000089804263005 9.999899979209422 0  7.000072714052017 9.999933556948815 0  8.00003992279041 9.999966875699483 0  9 10 0  -9 12 0  -8.000091112188253 11.99995296292763 0  -7.000177882653225 11.99990376891973 0  -6.00025539837425 11.9998498367683 0  -5.000317598351932 11.99978756371623 0  -4.000305756880964 11.9999224918267 0  -3.000315749773427 12.0000561022524 0  -2.00021675361361 12.0000398248433 0  -1.000108049791046 12.00003095810192 0  4.303035728678216e-06 12.00002905266319 0  1.000117865838907 12.00003435685102 0  2.000230694840188 12.00004850575878 0  3.000338559749169 12.00007563320424 0  4.000328422050162 11.99993273588835 0  5.000335734001344 11.99978877713098 0  6.000267911304125 11.99985113696855 0  7.000185775157137 11.99990471979894 0  8.000094935747191 11.99995344861339 0  9 12 0  -9 14 0  -8.000161324707491 13.99994870756535 0  -7.000323275959255 13.99989516429554 0  -6.00048673324283 13.99983692420209 0  -5.000653245065857 13.99977116348235 0  -4.000655175610507 13.99992596220691 0  -3.000655025947813 14.00008281629348 0  -2.000431007663323 14.00005997146496 0  -1.000211111601241 14.00004733627575 0  7.083328467073199e-06 14.00004332303172 0  1.000225864902134 14.00004739685539 0  2.00044740663537 14.00005978245282 0  3.000673603814412 14.00008117282117 0  4.000676654331178 13.99992634154085 0  5.000677284799182 13.99977257271268 0  6.00050323042993 13.99983741643108 0  7.000333624838381 13.99989530685804 0  8.000166318702684 13.99994873569629 0  9 14 0  -9 16 0  -8.000229007617996 15.99995345777217 0  -7.000462606731389 15.99990535170343 0  -6.000705788324757 15.99985410121785 0  -5.000964381833312 15.9997981251402 0  -4.00097356035869 15.99992724725874 0  -3.000964146256623 16.00005561947416 0  -2.000628833023615 16.00003929815331 0  -1.000307395602428 16.00002924155948 0  7.51739357875486e-06 16.00002525849735 0  1.000322850273104 16.0000272028721 0  2.000645554094123 16.00003505311538 0  3.000983035841978 16.00004887606693 0  4.000993589382547 15.9999216104147 0  5.000985017481303 15.99979423852432 0  6.000720685745831 15.99985151751 0  7.000472235059705 15.99990374628822 0  8.000233727046608 15.99995268407951 0  9 16 0  -9 18 0  -8.000278299540144 17.9999644637569 0  -7.000563565366867 17.99992811883579 0  -6.000863126485223 17.99989018389324 0  -5.001185043207699 17.99984994074713 0  -4.001198517113244 17.99992685053498 0  -3.001185020622202 18.00000365454338 0  -2.000771230031734 17.99999357997147 0  -1.000377617218286 17.99998686750845 0  6.270140938222025e-06 17.99998349886465 0  1.000390383057938 17.99998339967594 0  2.000784658808489 17.99998644644092 0  3.001199501124356 17.99999244532242 0  4.001213759740867 17.99991795602741 0  5.0012006577954 17.99984371315289 0  6.000874540880502 17.99988582429108 0  7.000571026820908 17.9999253526668 0  8.00028198421041 17.9999631209388 0  9 18 0  -9 20 0  -8.00029970436486 19.99997870383369 0  -7.000607299631284 19.99995724618688 0  -6.000930971050905 19.99993549981374 0  -5.001279492744724 19.99991340738267 0  -4.001294535030552 19.99992598609439 0  -3.001279358870842 19.99993847341687 0  -2.000832998099989 19.99993442282011 0  -1.000408975549411 19.99993112792915 0  4.118851036768662e-06 19.99992867139943 0  1.000417299618218 19.99992702222681 0  2.000841573886527 19.99992603988906 0  3.001288331350251 19.99992546665512 0  4.001303736245355 19.99991583554798 0  5.00128884908545 19.99990638062706 0  6.000937908801567 19.99993046284841 0  7.00061188414806 19.99995399968875 0  8.000301983802604 19.99997711398768 0  8.999999999997721 20.0000000000042 0  -9 22 0  -8.000289525897591 21.99999358912436 0  -7.000586687460879 21.99998752788052 0  -6.000899344703552 21.99998219934292 0  -5.00123580472376 21.99997805394835 0  -4.001250256128501 21.9999246245244 0  -3.001235712089917 21.99987111834275 0  -2.000805494319847 21.99987224501918 0  -1.00039666002077 21.99987203754178 0  1.621966747274198e-06 21.99987061717563 0  1.000399880185561 21.9998679797501 0  2.000808636844526 21.99986399841541 0  3.001238704277961 21.99985842198716 0  4.001253097026127 21.99991477762725 0  5.001238589774044 21.99997125528062 0  6.000901543126751 21.9999772820061 0  7.000588201944257 21.9999843360125 0  8.000290297086094 21.99999201909019 0  9 22 0  -9 24 0  -8.000248785272188 24.00000707559885 0  -7.000504051015873 24.00001487830301 0  -6.000772438138522 24.00002416554332 0  -5.001060905874683 24.00003575549631 0  -4.001073172875941 23.99992295670186 0  -3.001060944789055 23.99981011134021 0  -2.000692533970652 23.99981539970881 0  -1.000342170987635 23.99981779485158 0  -7.779710384170016e-07 23.99981742731552 0  1.000340506653387 23.99981430875538 0  2.000690538507917 23.99980833256737 0  3.001058377861096 23.99979927372788 0  4.001070163451502 23.99991460028683 0  5.001057705152851 24.00003002317511 0  6.000770288851163 24.00001999111133 0  7.000502734798115 24.00001215535489 0  8.000248161487951 24.00000573223462 0  9 24 0  -9 26 0  -8.000182101438737 26.00001765379486 0  -7.000368885810614 26.00003629050553 0  -6.000565139840732 26.00005692043811 0  -5.000775853663748 26.00008060865786 0  -4.000784804817912 25.99992115228215 0  -3.000776099375523 25.99976167499441 0  -2.000507455948455 25.99977012060949 0  -1.000251835576505 25.9997745954572 0  -2.741217316552167e-06 25.99977523404291 0  1.000246184210688 25.99977206052521 0  2.000501291242042 25.99976498915343 0  3.000769059735608 25.99975382445666 0  4.000777121881557 25.9999151260723 0  5.000767887867941 26.00007649754977 0  6.000559520060879 26.00005391472969 0  7.000365305093474 26.00003432410397 0  8.000180360122691 26.00001668189828 0  9 26 0  -9 28 0  -8.000096661436435 28.0000243006068 0  -7.00019579652703 28.00004972988859 0  -6.000299931116418 28.00007744200438 0  -5.000411690635834 28.00010864184766 0  -4.000416607587339 27.99991936428264 0  -3.000412201952551 27.99973009120825 0  -2.000270357621645 27.99974071711647 0  -1.000135428797646 27.99974673364229 0  -4.024887142504101e-06 27.99974828099337 0  1.000127173059028 27.99974539588132 0  2.000261477960627 27.99973801126086 0  3.000402262403712 27.99972595695684 0  4.000405907106259 27.99991620244631 0  5.000400656215109 28.00010649660969 0  6.000292072817493 28.00007586996671 0  7.000190753452181 28.00004869966123 0  8.0000941979738
[...]
<PointData  Scalars="f_44-1"> 
<DataArray  type="Float64"  Name="f_44-1"  format="ascii">5.0770350652564096e-04  5.8877264294349913e-05  3.1209513780339818e-05  6.5568107287467423e-05  -5.9721845644425170e-04  0.0000000000000000e+00  0.0000000000000000e+00  0.0000000000000000e+00  0.0000000000000000e+00  0.0000000000000000e+00  0.0000000000000000e+00  0.0000000000000000e+00  0.0000000000000000e+00  0.0000000000000000e+00  5.1872142907669744e-04  5.8922969647411486e-05  3.1642604189380418e-05  6.5390115256767545e-05  -6.1487033273017588e-04  2.2505570912403249e-02  2.2530471754676217e-02  2.2518840724310606e-02  2.2458444638927013e-02  2.2418880060249387e-02  0.0000000000000000e+00  0.0000000000000000e+00  0.0000000000000000e+00  0.0000000000000000e+00  0.0000000000000000e+00  0.0000000000000000e+00  0.0000000000000000e+00  0.0000000000000000e+00  0.0000000000000000e+00  2.2577679286140625e-02  2.2601550087057994e-02  2.2588403782518519e-02  2.2525933671259022e-02  2.2485910983942654e-02  4.5044556445783056e-02  4.5043498332030196e-02  4.5030289509408794e-02  4.5024725239621470e-02  4.5032234715873087e-02  0.0000000000000000e+00  0.0000000000000000e+00  0.0000000000000000e+00  0.0000000000000000e+00  0.0000000000000000e+00  0.0000000000000000e+00  0.0000000000000000e+00  0.0000000000000000e+00  0.0000000000000000e+00  4.5183433682401193e-02  4.5180916480247746e-02  4.5166186690731754e-02  4.5160482710215298e-02  4.5171782983714971e-02  6.7567572384871336e-02  6.7566034100770417e-02  6.7565034329985119e-02  6.7562957513666824e-02  6.7553498387946789e-02  0.0000000000000000e+00  0.0000000000000000e+00  0.0000000000000000e+00  0.0000000000000000e+00  0.0000000000000000e+00  0.0000000000000000e+00  0.0000000000000000e+00  0.0000000000000000e+00  0.0000000000000000e+00  6.7786390941236840e-02  6.7771632667279064e-02  6.7760657876512587e-02  6.7754015070596835e-02  6.7750997401550841e-02  9.0092485773120429e-02  9.0093351158343729e-02  9.0101432097711751e-02  9.0107366355448040e-02  9.0111070361399551e-02  0.0000000000000000e+00  0.0000000000000000e+00  0.0000000000000000e+00  0.0000000000000000e+00  0.0000000000000000e+00  0.0000000000000000e+00  0.0000000000000000e+00  0.0000000000000000e+00  0.0000000000000000e+00  9.0384455431817542e-02  9.0361635576225119e-02  9.0335888694725475e-02  9.0318936514730289e-02  9.0314667481688565e-02  1.1257795284678879e-01  1.1258417283518553e-01  1.1262024253117162e-01  1.1268679821005757e-01  1.1279772917102220e-01  0.0000000000000000e+00  2.8709881275532384e-01  2.8712683500620695e-01  2.8727583779390065e-01  2.8732866524629164e-01  2.8727795214146551e-01  2.8711186203317918e-01  2.8675750770584080e-01  0.0000000000000000e+00  1.1301158888453956e-01  1.1293240931796454e-01  1.1286871389677668e-01  1.1283099005934949e-01  1.1282272775302364e-01  1.3494191051189308e-01  1.3495405077886077e-01  1.3502182558275069e-01  1.3514177391259380e-01  1.3529573796901587e-01  0.0000000000000000e+00  2.8715990921104073e-01  2.8736937196480361e-01  2.8749582920536326e-01  2.8752566727270623e-01  2.8747526614914165e-01  2.8735318744092042e-01  2.8721022504677823e-01  0.0000000000000000e+00  1.3558299559573483e-01  1.3541003889508210e-01  1.3529545859075356e-01  1.3522718349432003e-01  1.3521304826909852e-01  1.5707771661656958e-01  1.5709759779790206e-01  1.5720689751622224e-01  1.5740476589215688e-01  1.5769233124081622e-01  0.0000000000000000e+00  2.8762827225424092e-01  2.8788494282094340e-01  2.8803455331025457e-01  2.8807963508405593e-01  2.8801346434312863e-01  2.8783572334559754e-01  2.8754414920620774e-01  0.0000000000000000e+00  1.5799408085921743e-01  1.5771573138223902e-01  1.5752246880220844e-01  1.5741150455966840e-01  1.5738928110416622e-01  1.7885532793924333e-01  1.7888370324626773e-01  1.7903663759845839e-01  1.7931523964032570e-01  1.7972453157789198e-01  0.0000000000000000e+00  2.8839745037558506e-01  2.8879196345585412e-01  2.8902164576465550e-01  2.8909125920055062e-01  2.8900209443597602e-01  2.8875276056167942e-01  2.8833517351765353e-01  0.0000000000000000e+00  1.8009310332272480e-01  1.7968617332462652e-01  1.7940902210931839e-01  1.7925373852125068e-01  1.7922301249528846e-01  2.0014243618655239e-01  2.0017804195835959e-01  2.0036647108241298e-01  2.0070990365530830e-01  2.0121806557568256e-01  0.0000000000000000e+00  2.8985731175511220e-01  2.9035193628261369e-01  2.9064010735565304e-01  2.9073025463188168e-01  2.9062514849724191e-01  2.9032237847473258e-01  2.8981153945934995e-01  0.0000000000000000e+00  2.0166574248461533e-01  2.0115376105979196e-01  2.0080716018075725e-01  2.0061525123899285e-01  2.0057738741428061e-01  2.2083444885933495e-01  2.2087425525232948e-01  2.2108165436990829e-01  2.2145886228161801e-01  2.2201779696836421e-01  0.0000000000000000e+00  2.9217338042478175e-01  2.9272028813139656e-01  2.9303923133233900e-01  2.9314104126909318e-01  2.9302913526456997e-01  2.9270037912524899e-01  2.9214300110861224e-01  0.0000000000000000e+00  2.2253718831084321e-01  2.2197209555504283e-01  2.2159078431179882e-01  2.2138074511171046e-01  2.2133935440544145e-01  2.4087931323508563e-01  2.4091917894678069e-01  2.4112408202482050e-01  2.4149543561187198e-01  2.4204510486385006e-01  0.0000000000000000e+00  2.9543890296125980e-01  2.9597858285695061e-01  2.9629344300964805e-01  2.9639530652842827e-01  2.9628749197503562e-01  2.9596656632816665e-01  2.9542161846254866e-01  0.0000000000000000e+00  2.4262786010624487e-01  2.4207075119611693e-01  2.4169570111589120e-01  2.4148994855319114e-01  2.4144942558653798e-01  2.6029173069152994e-01  2.6032718069657840e-01  2.6050702011503407e-01  2.6083138126666394e-01  2.6131026713884248e-01  0.0000000000000000e+00  2.9964043425271386e-01  3.0011198856329552e-01  3.0038693811071671e-01  3.0047675164466464e-01  3.0038409374826064e-01  3.0010566508077546e-01  2.9963301508649753e-01  0.0000000000000000e+00  2.6194442847590965e-01  2.6145770243140637e-01  2.6113081589128312e-01  2.6095225526790794e-01  2.6091711365523218e-01  2.7915573718727782e-01  2.7918266456332502e-01  2.7931713733659913e-01  2.7955782176309268e-01  2.7991149574698565e-01  0.0000000000000000e+00  3.0465794681116914e-01  3.0500764815771098e-01  3.0521113715498627e-01  3.0527816871281616e-01  3.0521041710118457e-01  3.0500511690396731e-01  3.0465738367331296e-01  0.0000000000000000e+00  2.8058317701337165e-01  2.8022172985897531e-01  2.7997985288083899e-01  2.7984859939306550e-01  2.7982280698527473e-01  2.9761695199537053e-01  2.9763218417036585e-01  2.9770593846290788e-01  2.9783546655403537e-01  2.9802346514981448e-01  0.0000000000000000e+00  3.1027905638789227e-01  3.1046688460497252e-01  3.1057545673064985e-01  3.1061164842524414e-01  3.1057596496825285e-01  3.1046650250367752e-01  3.1028251424981257e-01  0.0000000000000000e+00  2.9871781695946070e-01  2.9852223435384445e-01  2.9839251826775670e-01  2.9832332555786745e-01  2.9830977870082448e-01  3.1586665719904283e-01  3.1586835874931246e-01  3.1587288454393170e-01  3.1587630752588719e-01  3.1587692882028928e-01  0.0000000000000000e+00  3.1622287591991338e-01  3.1622716812770585e-01  3.1622817618454835e-01  3.1622904812844810e-01  3.1622908887472601e-01  3.1622748971686698e-01  3.1622767265768958e-01  0.0000000000000000e+00  3.1657864588433676e-01  3.1657055119086985e-01  3.1656732260622539e-01  3.1656785258464809e-01  3.1656802673489931e-01  3.3412027165550590e-01  3.3410816378572816e-01  3.3404279746978088e-01  3.3391943881568714e-01  3.3373220751859339e-01  0.0000000000000000e+00  3.2217174455033748e-01  3.2199162737665177e-01  3.2188462327845951e-01  3.2184972751199492e-01  3.2188514607817015e-01  3.2199128214190414e-01  3.2217525976973099e-01  0.0000000000000000e+00  3.3442588524630817e-01  3.3460560528974942e-01  3.3472881806475308e-01  3.3479880277993668e-01  3.3481258922474677e-01  3.5259300925704018e-01  3.5256839718746880e-01  3.5244039759090706e-01  3.5220393538581618e-01  3.5184964127006507e-01  0.0000000000000000e+00  3.2780709089882804e-01  3.2746256636911641e-01  3.2725930316150809e-01  3.2719221146621957e-01  3.2725861863090006e-01  3.2746012000865915e-01  3.2780665834598205e-01  0.0000000000000000e+00  3.5252006033966649e-01  3.5286672490894211e-01  3.5310207983395114e-01  3.5323341260907032e-01  3.5325914907587147e-01  3.7147561115318151e-01  3.7144121573427302e-01  3.7126491756233559e-01  3.7094182457454306e-01  3.7046015882062561e-01  0.0000000000000000e+00  3.3284562398131440e-01  3.3237528137963712e-01  3.3209831410872193e-01  3.3200614109737131e-01  3.3209553372177458e-01  3.3236910292525362e-01  3.3283843029783822e-01  0.0000000000000000e+00  3.7109264460011937e-01  3.7156667554256773e-01  3.7188736865502148e-01  3.7206511325740310e-01  3.7209980301122370e-01  3.9091293127282822e-01  3.9087256239033624e-01  3.9066767920519552e-01  3.9029412744744901e-01  3.8973908477240787e-01  0.0000000000000000e+00  3.3707187672579930e-01  3.3652832927815834e-01  3.3620828437988493e-01  3.3610078163623069e-01  3.3620243543352862e-01  3.3651653584009023e-01  3.3705493298232297e-01  0.0000000000000000e+00  3.9032000727471683e-01  3.9086785931022572e-01  3.9123786147744066e-01  3.9144210447647337e-01  3.9148180088826279e-01  4.1098805386307080e-01  4.1094611049027924e-01  4.1073523744999602e-01  4.1035261446001348e-01  4.0978584548196129e-01  0.0000000000000000e+00  3.4036318189347031e-01  3.3980648805409569e-01  3.3947815248864527e-01  3.3936642289262109e-01  3.3946819654757021e-01  3.3978687751050030e-01  3.4033325222468347e-01  0.0000000000000000e+00  4.1030353338098574e-01  4.1086440454979489e-01  4.1124308144709987e-01  4.1145154071214984e-01  4.1149188638100431e-01  4.3171428222151553e-01  4.3167513229346405e-01  4.3148057288540409e-01  4.3112964731790931e-01  4.3061191506950730e-01  0.0000000000000000e+00  3.4270356080809811e-01  3.4219297102350510e-01  3.4189033798011381e-01  3.4178532559952723e-01  3.4187554119423963e-01  3.4216375765080542e-01  3.4265831875574232e-01  0.0000000000000000e+00  4.3105837540309710e-01  4.3157249860823593e-01  4.3192036694408331e-01  4.3211163209569059e-01  4.3214850756421097e-01  4.5303655700926992e-01  4.5300394512223796e-01  4.5284446292039993e-01  4.5256039872743098e-01  4.5214409307841952e-01  0.0000000000000000e+00  3.4418501444352695e-01  3.4376747312006289e-01  3.4351814747956966e-01  3.4342903253932616e-01  3.4349876393921913e-01  3.4372862790868458e-01  3.4412329367246758e-01  0.0000000000000000e+00  4.5251214968303272e-01  4.5293088702273104e-01  4.5321644378794540e-01  4.5337367695761632e-01  4.5340392510959293e-01  4.7484582258294389e-01  4.7482142305763658e-01  4.7470546459396873e-01  4.7450399195137949e-01  4.7421434253582329e-01  0.0000000000000000e+00  3.4497833071222400e-01  3.4468672172074483e-01  3.4450893945080513e-01  3.4444277689904373e-01  3.4448793249393045e-01  3.4463772467620912e-01  3.4489468338278473e-01  0.0000000000000000e+00  4.7451597629705772e-01  4.7481503525115260e-01  4.7502111433884808e-01  4.7513538833899932e-01  4.7515743032326108e-01  4.9700745592001755e-01  4.9699132858218020e-01  4.9691843411717357e-01  4.9679625187387955e-01  4.9661282452077099e-01  0.0000000000000000e+00  3.4531321974219098e-01  3.4516996940033279e-01  3.4504787439058932e-01  3.4499747369201933e-01  3.4502732170804040e-01  3.4515366399985836e-01  3.4536293840420762e-01  0.0000000000000000e+00  4.9690100120811259e-01  4.9706510141656057e-01  4.9719249066997234e-01  4.9726476880086318e-01  4.9727889466590369e-01  5.1939259618296862e-01  5.1938294634475990e-01  5.1934198838262247e-01  5.1927322199241366e-01  5.1918709795622442e-01  0.0000000000000000e+00  3.4576459294648920e-01  3.4541123584615724e-01  3.4524573048157448e-01  3.4519498288334377e-01  3.4524754045067813e-01  3.4539564397309019e-01  3.4542424517462850e-01  0.0000000000000000e+00  5.1940295015209614e-01  5.1951987385580545e-01  5.1959117270421984e-01  5.1963026542041746e-01  5.1963787434993436e-01  5.4190236189544283e-01  5.4189736946426081e-01  5.4187873753578575e-01  5.4185068703763750e-01  5.4182549453168116e-01  0.0000000000000000e+00  0.0000000000000000e+00  0.0000000000000000e+00  0.0000000000000000e+00  0.0000000000000000e+00  0.0000000000000000e+00  0.0000000000000000e+00  0.0000000000000000e+00  0.0000000000000000e+00  5.4209843889448006e-01  5.4210511571580422e-01  5.4211367936999411e-01  5.4212346175120618e-01  5.4212512428613047e-01  5.6447182715837918e-01  5.6446813183362843e-01  5.6446075771168103e-01  5.6444881646544032e-01  5.6443297352832167e-01  0.0000000000000000e+00  0.0000000000000000e+00  0.0000000000000000e+00  0.0000000000000000e+00  0.0000000000000000e+00  0.0000000000000000e+00  0.0000000000000000e+00  0.0000000000000000e+00  0.0000000000000000e+00  5.6466753111414403e-01  5.6465860252582833e-01  5.6465737325178633e-01  5.6465708779748125e-01  5.6465582772073997e-01  5.8705725787574770e-01  5.8706895318114494e-01  5.8706355397917687e-01  5.8704826811320310e-01  5.8704519470427718e-01  0.0000000000000000e+00  0.0000000000000000e+00  0.0000000000000000e+00  0.0000000000000000e+00  0.0000000000000000e+00  0.0000000000000000e+00  0.0000000000000000e+00  0.0000000000000000e+00  0.0000000000000000e+00  5.8719675662853799e-01  5.8720493417700237e-01  5.8720023844410540e-01  5.8718705805114679e-01  5.8718601052489960e-01  6.0975020463035168e-01  6.0971331705963172e-01  6.0965116889151982e-01  6.0963885377620664e-01  6.0966437616617708e-01  0.0000000000000000e+00  0.0000000000000000e+00  0.0000000000000000e+00  0.0000000000000000e+00  0.0000000000000000e+00  0.0000000000000000e+00  0.0000000000000000e+00  0.0000000000000000e+00  0.0000000000000000e+00  6.0981705244868789e-01  6.0978076519063007e-01  6.0972142933229279e-01  6.0971115902611361e-01  6.0973810366481507e-01  6.3287828159091175e-01  6.3218168949158071e-01  6.3221301577801314e-01  6.3218738326365498e-01  6.3172020724653255e-01  0.0000000000000000e+00  0.0000000000000000e+00  0.0000000000000000e+00  0.0000000000000000e+00  0.0000000000000000e+00  0.0000000000000000e+00  0.0000000000000000e+00  0.0000000000000000e+00  0.0000000000000000e+00  6.3285516817656517e-01  6.3218164817604461e-01  6.3221357604247908e-01  6.3218738846747236e-01  6.3173382908995857e-01  </DataArray> 
</PointData> 
</Piece>
</UnstructuredGrid>
</VTKFile>