<?xml version="1.0"?>
<VTKFile type="UnstructuredGrid"  version="0.1"  >
<UnstructuredGrid>
<Piece  NumberOfPoints="589" NumberOfCells="1080">
<Points>
<DataArray  type="Float64"  NumberOfComponents="3"  format="ascii">-9 0 0  -8 0 0  -7 0 0  -6 0 0  -5 0 0  -4 0 0  -3 0 0  -2 0 0  -1 0 0  0 0 0  1 0 0  2 0 0  3 0 0  4 0 0  5 0 0  6 0 0  7 0 0  8 0 0  9 0 0  -9 2 0  -7.999995120312655 2.000006657265762 0  -6.999989824440975 2.000012522459563 0  -5.999983119904637 2.000016954539517 0  -4.999972724060531 2.000019678114338 0  -3.999983272268384 2.000014609128671 0  -2.999994119289761 2.000009948838204 0  -1.999999512943573 2.00000563341674 0  -1.000000621072198 2.000002201348154 0  9.792502032131319e-07 2.000000619733297 0  1.000002878963434 2.000001450437818 0  2.000002779029762 2.00000440718972 0  2.999999183732829 2.000007965528587 0  3.999991755433113 2.000011512785096 0  4.999981249064993 2.000012111651817 0  5.999989053718271 2.00001205056017 0  6.999993620905574 2.0000094691706 0  7.999996979603341 2.000005172406983 0  9 2 0  -9.000000000009988 4 0  -7.999991905286765 4.000016483065012 0  -6.999985283532018 4.000030777562005 0  -5.999981005006038 4.000040743200702 0  -4.999978920724533 4.000044347915005 0  -3.99999395776845 4.000041820383021 0  -3.00000408707393 4.000028889043529 0  -2.000006894418297 4.000012144980289 0  -1.000003353997283 3.999998637223709 0  3.656332643195892e-06 3.999992985560698 0  1.000010892405072 3.99999662535322 0  2.000015230289132 4.000007062061121 0  3.000013577000957 4.000021120960226 0  4.000005023974046 4.000034814895088 0  4.999991788525683 4.000037926344735 0  5.999991057285573 4.000034182416608 0  6.999992075746309 4.000025800026359 0  7.999995312352077 4.000013847588839 0  9 4 0  -9 6 0  -7.99998279805204 6.000035064290404 0  -6.999971369667748 6.000066349155812 0  -5.999970113161246 6.000089976556489 0  -4.999980261318707 6.0001022617496 0  -4.000009173103449 6.000082934558914 0  -3.000022286974867 6.000043165348591 0  -2.000016977949393 6.00000161616174 0  -1.000004055008929 5.999978658420185 0  8.804231708427382e-06 5.999973862795405 0  1.000020171581295 5.999980692086432 0  2.000028759122109 5.999999909344119 0  3.000032077394505 6.000032391545614 0  4.000025782468089 6.000065678922793 0  5.000002426099541 6.000081104105861 0  5.999986061996176 6.000074868992857 0  6.999981657747161 6.000056412034892 0  7.999987840570282 6.000030104274424 0  9 6 0  -9 8 0  -7.99995058999247 8.00006876847187 0  -6.999916766311952 8.000132556208467 0  -5.999913601664798 8.000184584167943 0  -4.999953880322927 8.000213673684947 0  -4.000009914119521 8.000125497594903 0  -2.999998560624712 8.000022147767348 0  -1.999976696977133 7.999972473221161 0  -0.9999745796703181 7.999967697715796 0  1.287236237016055e-05 7.999966458145751 0  1.000003147330753 7.999961520619839 0  2.000006297436243 7.999980716153557 0  3.000029375311069 8.000013522295971 0  4.000037023977378 8.000096289569937 0  4.999984358337247 8.000189796287225 0  5.999933223459887 8.000164450045961 0  6.999928887284695 8.000118432561267 0  7.999956458897835 8.000061550949573 0  9 8 0  -9 10 0  -7.999856009786582 10.00012241710126 0  -6.99973950495642 10.00024583564435 0  -5.999683290668009 10.00037100038963 0  -4.999732946832916 10.00049808462454 0  -3.999822510105156 10.00021173626868 0  -2.999806181014771 9.999965851929131 0  -1.999841441389343 10.00001088528006 0  -0.9999198208299458 10.00002540975402 0  2.325302169595387e-05 10.00002894204013 0  0.9999673339220322 10.00002840481127 0  1.999893662956032 10.0000288316268 0  2.99982780222513 9.999943745573567 0  3.999834823649179 10.00016142679489 0  4.999739054670722 10.00044881585695 0  5.999693138083245 10.00033675545816 0  6.999748453399887 10.00022393135319 0  7.999861178532453 10.00011168861546 0  9 10 0  -9 12 0  -7.99965136271883 12.00017210629031 0  -6.99932087705654 12.00035220861585 0  -5.999029103087727 12.00054987567954 0  -4.998801391983758 12.00077848729635 0  -3.998847883341823 12.00025375003049 0  -2.998804978390111 11.99973371205481 0  -1.999157722978996 11.99980008305257 0  -0.999554033880189 11.99983803280932 0  3.216571790711483e-05 11.99984909243325 0  0.9996121877498599 11.9998324705258 0  1.999195025509227 11.99978238330451 0  2.998798151232335 11.99968405954739 0  3.998837934399833 12.00020457458929 0  4.998811704273073 12.00072891342058 0  5.999047874951594 12.00051220430346 0  6.999338256070924 12.00032715903519 0  7.999661437529821 12.00015964331824 0  9 12 0  -9 14 0  -7.999373848671835 14.00018986406774 0  -6.998746985368614 14.00038841395365 0  -5.998117950856556 14.00060510591956 0  -4.997483072796064 14.0008508996306 0  -3.997477563390757 14.00023359793624 0  -2.997472565072991 13.99960823157861 0  -1.998300229713097 13.99970306200445 0  -0.9991185236843141 13.99975830133379 0  6.580777545428386e-05 13.99978004451246 0  0.9992460967623724 13.99977048508756 0  1.99841587657408 13.999729006011 0  2.997569706814262 13.99965325130608 0  3.997560502116686 14.0002225684738 0  4.997558664808482 14.00078789156631 0  5.998185224035985 14.00056117508583 0  6.998796540046698 14.00036037359215 0  7.999399976317173 14.00017616535614 0  9 14 0  -9 16 0  -7.999098824748707 16.00017291388813 0  -6.99818118994586 16.00035212529925 0  -5.997229226865181 16.0005440402284 0  -4.996222009735205 16.00075514759096 0  -3.996187664854567 16.00022176828458 0  -2.996219591845726 15.99969104533252 0  -1.997481123689203 15.99976468080922 0  -0.9986939336983006 15.99981277468899 0  0.0001155916243273969 15.99983640329078 0  0.9989223971593869 15.99983636868973 0  1.997701319463748 15.99981291874999 0  2.996425528000448 15.99976587118563 0  3.996387470798842 16.00023543586946 0  4.996420310906233 16.00070525143312 0  5.997382629232884 16.00050660138524 0  6.998285792402831 16.00032729597949 0  7.99915184060428 16.00016055780246 0  9 16 0  -9 18 0  -7.998889260123849 18.00013078281602 0  -6.99775202806224 18.00026506033021 0  -5.996560434055821 18.00040626221165 0  -4.995283783867981 18.0005576435325 0  -3.99523120857684 18.0002172931717 0  -2.995280792998243 17.99987723998165 0  -1.996858057280326 17.9999286871027 0  -0.9983592390728818 17.9999653382871 0  0.0001761939615248192 17.99998763989199 0  0.9987106523660285 17.99999613183452 0  1.997206590480291 17.99999142892162 0  2.99562470708919 17.99997429556662 0  3.995571467265382 18.00024555856261 0  4.995622158988771 18.00051577764521 0  5.996815619511214 18.00037472029722 0  6.997922860688209 18.0002439927638 0  7.998974897642078 18.0001202434575 0  9 18 0  -9 20 0  -7.998785311836146 20.00007466653508 0  -6.997539621679633 20.00015030509948 0  -5.996230732031626 20.00022778333773 0  -4.994824037212845 20.00030774683256 0  -3.99476377023309 20.00021576841088 0  -2.99482195906339 20.00012399492024 0  -1.996540586689161 20.0001520391316 0  -0.9981716202422919 20.00017546496625 0  0.0002406379435317852 20.00019427918538 0  0.9986534829098657 20.00020883150723 0  1.99702426129013 20.00021980433765 0  2.99530882554966 20.00022824174577 0  3.995250053143337 20.00025096840774 0  4.995308214470058 20.00027281624732 0  5.996592430685508 20.00020153811104 0  6.997780102067197 20.00013278494522 0  7.998905362625878 20.00006589995509 0  8.999999999974486 20.00000000000515 0  -9 22 0  -7.998805048744589 22.00001465408974 0  -6.997579330438857 22.00002818672807 0  -5.99629111313843 22.00003935976921 0  -4.994906727361077 22.00004669807668 0  -3.994847717627691 22.0002171673549 0  -2.994905350835618 22.00038772870802 0  -1.996574755363593 22.00039391703486 0  -0.9981577752263532 22.00040409430425 0  0.0003027128244719919 22.00041802114369 0  0.9987651377352388 22.00043589830009 0  1.997187993853219 22.00045835890905 0  2.995528602165307 22.00048647717009 0  3.995472772244626 22.00025292216871 0  4.995529620484799 22.00001860725362 0  5.996754406209451 22.0000182535851 0  6.997886381922166 22.00001409998055 0  7.998958037688837 22.00000760639803 0  9 22 0  -9 24 0  -7.998947529583056 23.99995912556623 0  -6.997868348147352 23.99991550258006 0  -5.996735027998978 23.99986626656193 0  -4.99551868434777 23.99980831162883 0  -3.995467959205222 24.00022050787629 0  -2.995517980405936 24.00063263396956 0  -1.996955670168673 24.00061978943681 0  -0.9983185225501247 24.00061767721211 0  0.0003570612726483831 24.00062591189683 0  0.9990356714706641 24.0006445762826 0  1.997681971442353 24.00067421874781 0  2.996259780025883 24.00071585706767 0  3.996213474992809 24.00025169945463 0  4.996261905931334 23.99978683725461 0  5.997286636170111 23.99985016843256 0  6.99823335704565 23.99990477448392 0  7.999129221297095 23.99995376195224 0  9 24 0  -9 26 0  -7.999196493464586 25.99991459557737 0  -6.998373202837003 25.99982528464204 0  -5.99750987979742 25.99972804187453 0  -4.996585294133164 25.99961860741542 0  -3.996548067605064 26.00022492490328 0  -2.996585110454736 26.00083105937322 0  -1.997637085632012 26.00080262489648 0  -0.9986335343412679 26.00078976231148 0  0.0003993549209849074 26.00079197072091 0  0.9994360705626438 26.00080922396745 0  1.998451179045976 26.00084196973908 0  2.997418726591945 26.00089113040581 0  3.997386793142411 26.00024777942806 0  4.997421624930195 25.99960383700641 0  5.998129904231746 25.99971699391445 0  6.998783150630961 25.99981793295792 0  7.999400453371432 25.99991092352041 0  9 26 0  -9 28 0  -7.999524182162754 27.99988569717154 0  -6.999037432228001 27.99976679407363 0  -5.998528601126168 27.99963857284691 0  -4.997986029684405 27.99949608308368 0  -3.99796567654947 28.00022975753648 0  -2.997986055591829 28.00096317306141 0  -1.998541725747827 28.00092306117345 0  -0.9990664009962749 28.00090144852547 0  0.0004263987114461173 28.00089773140969 0  0.9999235164256279 28.00091177824704 0  1.999411875484192 28.00094392908009 0  2.998878196935793 28.00099499582712 0  3.998863789739153 28.00024183042166 0  4.998881682945061 27.99948821665241 0  5.999192250960577 27.99963271017898 0  6.99947605258503 27.99976290
[...]
<PointData  Scalars="f_44-1"> 
<DataArray  type="Float64"  Name="f_44-1"  format="ascii">-1.5274786599369715e-03  -1.5692528694073173e-04  -5.7770807277062388e-05  -1.4753253506032707e-04  1.8972003098764766e-03  0.0000000000000000e+00  0.0000000000000000e+00  0.0000000000000000e+00  0.0000000000000000e+00  0.0000000000000000e+00  0.0000000000000000e+00  0.0000000000000000e+00  0.0000000000000000e+00  0.0000000000000000e+00  -1.5605069386352428e-03  -1.2746948791971498e-04  -3.0290905068433305e-05  -1.3599488387848265e-04  1.9460228770524337e-03  -5.7140700051431292e-02  -5.7174887547269904e-02  -5.7061511168654835e-02  -5.6859826325437797e-02  -5.6668661405911293e-02  0.0000000000000000e+00  0.0000000000000000e+00  0.0000000000000000e+00  0.0000000000000000e+00  0.0000000000000000e+00  0.0000000000000000e+00  0.0000000000000000e+00  0.0000000000000000e+00  0.0000000000000000e+00  -5.7799571633411935e-02  -5.7852033099673884e-02  -5.7746272056448944e-02  -5.7521272459630776e-02  -5.7311115776128026e-02  -1.1419484737070663e-01  -1.1420040506102222e-01  -1.1418075977227413e-01  -1.1414835963864971e-01  -1.1414301421434733e-01  0.0000000000000000e+00  0.0000000000000000e+00  0.0000000000000000e+00  0.0000000000000000e+00  0.0000000000000000e+00  0.0000000000000000e+00  0.0000000000000000e+00  0.0000000000000000e+00  0.0000000000000000e+00  -1.1548577284604196e-01  -1.1546514969843953e-01  -1.1542231310832556e-01  -1.1539788101555791e-01  -1.1541279997563904e-01  -1.7126783100600615e-01  -1.7125292162956335e-01  -1.7122124425777141e-01  -1.7118536689459649e-01  -1.7114111586206032e-01  0.0000000000000000e+00  0.0000000000000000e+00  0.0000000000000000e+00  0.0000000000000000e+00  0.0000000000000000e+00  0.0000000000000000e+00  0.0000000000000000e+00  0.0000000000000000e+00  0.0000000000000000e+00  -1.7319230433358851e-01  -1.7316213133188629e-01  -1.7315220152967006e-01  -1.7314820808717707e-01  -1.7314947127811370e-01  -2.2841839685615972e-01  -2.2841236555841071e-01  -2.2839936163056329e-01  -2.2835833818394366e-01  -2.2833369746037604e-01  0.0000000000000000e+00  0.0000000000000000e+00  0.0000000000000000e+00  0.0000000000000000e+00  0.0000000000000000e+00  0.0000000000000000e+00  0.0000000000000000e+00  0.0000000000000000e+00  0.0000000000000000e+00  -2.3092071276506626e-01  -2.3089152903485363e-01  -2.3086531029024093e-01  -2.3085537425739633e-01  -2.3084714626007857e-01  -2.8560626984302301e-01  -2.8560673701973505e-01  -2.8561668419837100e-01  -2.8564577189936574e-01  -2.8579131701112970e-01  0.0000000000000000e+00  -8.3976880509631568e-01  -8.3973992821836740e-01  -8.4007775545328445e-01  -8.4018523290296154e-01  -8.4008112249471867e-01  -8.3969464509297398e-01  -8.3869935768673765e-01  0.0000000000000000e+00  -2.8860566023371043e-01  -2.8853553895730788e-01  -2.8852260468817253e-01  -2.8852761276036004e-01  -2.8852097039447172e-01  -3.4278179141588733e-01  -3.4277448941863570e-01  -3.4275619305279093e-01  -3.4272217525779014e-01  -3.4271103973413636e-01  0.0000000000000000e+00  -8.4013202173159729e-01  -8.4041913835297510e-01  -8.4057327612970667e-01  -8.4057942861265755e-01  -8.4050120718310795e-01  -8.4035030261707677e-01  -8.4028506185686935e-01  0.0000000000000000e+00  -3.4608364825546012e-01  -3.4606318268943564e-01  -3.4615222071489576e-01  -3.4620234392690591e-01  -3.4620942584622472e-01  -3.9997749054527343e-01  -3.9995943349203028e-01  -3.9991621299403829e-01  -3.9984851191783610e-01  -3.9984145627432238e-01  0.0000000000000000e+00  -8.4140756238703007e-01  -8.4143367212736897e-01  -8.4142751362445944e-01  -8.4140565678933255e-01  -8.4134097884372894e-01  -8.4122300227765456e-01  -8.4106999322749731e-01  0.0000000000000000e+00  -4.0370247707052576e-01  -4.0376714260452456e-01  -4.0388947638093647e-01  -4.0395991399895292e-01  -4.0398256274776151e-01  -4.5721639066948339e-01  -4.5719086851275031e-01  -4.5714432177184955e-01  -4.5708428418210750e-01  -4.5708474823580164e-01  0.0000000000000000e+00  -8.4235197951131513e-01  -8.4244238895336454e-01  -8.4247603162874218e-01  -8.4245713599380767e-01  -8.4238457372168374e-01  -8.4225608972347032e-01  -8.4207685858919534e-01  0.0000000000000000e+00  -4.6164562989130198e-01  -4.6167539166665922e-01  -4.6177456121226867e-01  -4.6183694869210079e-01  -4.6186325410062284e-01  -5.1447100032360171e-01  -5.1444373043383385e-01  -5.1441704301179259e-01  -5.1440401210793929e-01  -5.1445187145786708e-01  0.0000000000000000e+00  -8.4357397146178514e-01  -8.4368151035780570e-01  -8.4372843536638875e-01  -8.4371672068229708e-01  -8.4364677279917233e-01  -8.4351584708652194e-01  -8.4333171250243288e-01  0.0000000000000000e+00  -5.1979742449111266e-01  -5.1973844787193824e-01  -5.1975807484792924e-01  -5.1977993120284438e-01  -5.1980443258448328e-01  -5.7166592640179448e-01  -5.7164223381481249e-01  -5.7165028693263353e-01  -5.7170535402842837e-01  -5.7181462225090451e-01  0.0000000000000000e+00  -8.4504572166850644e-01  -8.4516759029276234e-01  -8.4522566277082500e-01  -8.4521975927482262e-01  -8.4515310261356258e-01  -8.4502355056994793e-01  -8.4483155251593656e-01  0.0000000000000000e+00  -5.7792682923838024e-01  -5.7777534744425241e-01  -5.7769966916712812e-01  -5.7766948734585033e-01  -5.7768837688406405e-01  -6.2870157064620924e-01  -6.2868535517970514e-01  -6.2873307384970734e-01  -6.2885879127883415e-01  -6.2902409868430387e-01  0.0000000000000000e+00  -8.4680055037140656e-01  -8.4691982346980588e-01  -8.4697899422803702e-01  -8.4697628896289145e-01  -8.4691516301366165e-01  -8.4679392537069076e-01  -8.4660912413920819e-01  0.0000000000000000e+00  -6.3584663415387888e-01  -6.3561124487645648e-01  -6.3544137021807134e-01  -6.3535876410998116e-01  -6.3536866990972307e-01  -6.8548059749649271e-01  -6.8547418202282451e-01  -6.8555826365217443e-01  -6.8574319863861810e-01  -6.8594708024482487e-01  0.0000000000000000e+00  -8.4883374558683655e-01  -8.4893195902851215e-01  -8.4898025338285721e-01  -8.4897585330478942e-01  -8.4892198510830941e-01  -8.4881803989736959e-01  -8.4865712988630315e-01  0.0000000000000000e+00  -6.9338212308804881e-01  -6.9308513349192136e-01  -6.9283645071727085e-01  -6.9270863157014873e-01  -6.9270726080632183e-01  -7.4192889773324322e-01  -7.4193300984489019e-01  -7.4204410869074688e-01  -7.4226725584638520e-01  -7.4248506003617887e-01  0.0000000000000000e+00  -8.5110179347316295e-01  -8.5116248879935608e-01  -8.5118939212130296e-01  -8.5117929426038696e-01  -8.5113464811694628e-01  -8.5105601271261233e-01  -8.5093391377388261e-01  0.0000000000000000e+00  -7.5040107101263009e-01  -7.5007257663665183e-01  -7.4977045897798444e-01  -7.4961030065694401e-01  -7.4959702608009626e-01  -7.9800924511966220e-01  -7.9802334166549327e-01  -7.9814832810097081e-01  -7.9838324153047080e-01  -7.9858754891882699e-01  0.0000000000000000e+00  -8.5353246371011782e-01  -8.5354399822437599e-01  -8.5354208868979098e-01  -8.5352334219602111e-01  -8.5348914077462190e-01  -8.5344124236957297e-01  -8.5336869538268401e-01  0.0000000000000000e+00  -8.0682768123694848e-01  -8.0650087307614549e-01  -8.0617638358552690e-01  -8.0600025195639835e-01  -8.0597603485404246e-01  -8.5372921521708589e-01  -8.5375131322407993e-01  -8.5387521702536207e-01  -8.5409379102882421e-01  -8.5425841123015123e-01  0.0000000000000000e+00  -8.5603496046557825e-01  -8.5599205891172792e-01  -8.5595785807136571e-01  -8.5592886335076435e-01  -8.5590530565976519e-01  -8.5589002008689052e-01  -8.5587172544651069e-01  0.0000000000000000e+00  -8.6264898321439543e-01  -8.6235619157647725e-01  -8.6204222810921416e-01  -8.6186789587375656e-01  -8.6183497972131307e-01  -9.0913982718443820e-01  -9.0916763082188357e-01  -9.0927575704401420e-01  -9.0945193394117396e-01  -9.0955543981874321e-01  0.0000000000000000e+00  -8.5851300999299185e-01  -8.5841717926934757e-01  -8.5835129257488241e-01  -8.5831179914567501e-01  -8.5829786254973850e-01  -8.5831315352458692e-01  -8.5834718817707212e-01  0.0000000000000000e+00  -9.1791521728627001e-01  -9.1768419265725787e-01  -9.1741181755497136e-01  -9.1725658766009399e-01  -9.1721812371156042e-01  -9.6433372659059269e-01  -9.6436292792621792e-01  -9.6444257109067189e-01  -9.6455584932166849e-01  -9.6458413786075947e-01  0.0000000000000000e+00  -8.6087740424149639e-01  -8.6073633149860806e-01  -8.6064293915430978e-01  -8.6059382253256700e-01  -8.6058726742445901e-01  -8.6062746407002144e-01  -8.6070569294281485e-01  0.0000000000000000e+00  -9.7273258290263809e-01  -9.7258386593624113e-01  -9.7237967303902617e-01  -9.7225847732967352e-01  -9.7221809862897934e-01  -1.0194275194228786e+00  -1.0194580157646280e+00  -1.0195007727207823e+00  -1.0195357081458980e+00  -1.0194824844067749e+00  0.0000000000000000e+00  -8.6305616479823921e-01  -8.6288227039130461e-01  -8.6276813928079354e-01  -8.6271102341050676e-01  -8.6270857554483960e-01  -8.6276513138426925e-01  -8.6287444053609530e-01  0.0000000000000000e+00  -1.0272507073411290e+00  -1.0271975331095649e+00  -1.0270798358687010e+00  -1.0270038071209295e+00  -1.0269653259201432e+00  -1.0745632944565511e+00  -1.0745852515264054e+00  -1.0745816140230402e+00  -1.0745357416330548e+00  -1.0744083280442513e+00  0.0000000000000000e+00  -8.6500126939436206e-01  -8.6480950779870602e-01  -8.6468270220376509e-01  -8.6461956201519330e-01  -8.6461729597942216e-01  -8.6467991911283437e-01  -8.6480410758435899e-01  0.0000000000000000e+00  -1.0816545638504682e+00  -1.0816915506264952e+00  -1.0816706593923311e+00  -1.0816469615830731e+00  -1.0816139391146486e+00  -1.1298563025090986e+00  -1.1298758206258803e+00  -1.1298377668019610e+00  -1.1297200294655068e+00  -1.1295282726286411e+00  0.0000000000000000e+00  -8.6669121371038871e-01  -8.6649681628261743e-01  -8.6636524813388949e-01  -8.6629759552099406e-01  -8.6629110412111343e-01  -8.6634914367802451e-01  -8.6647139052678146e-01  0.0000000000000000e+00  -1.1361017667344462e+00  -1.1362422246447190e+00  -1.1363206813600955e+00  -1.1363489070070709e+00  -1.1363241022289008e+00  -1.1854435166489636e+00  -1.1854591613300542e+00  -1.1853762105144701e+00  -1.1851820688045291e+00  -1.1849415778329360e+00  0.0000000000000000e+00  -8.6813006780992785e-01  -8.6794588762855818e-01  -8.6781491681986223e-01  -8.6774449778728613e-01  -8.6773163117592667e-01  -8.6777678627872967e-01  -8.6788251540847783e-01  0.0000000000000000e+00  -1.1908432535920075e+00  -1.1910270543955523e+00  -1.1911828233579929e+00  -1.1912602003177777e+00  -1.1912459030707720e+00  -1.2414045667167797e+00  -1.2413862991796931e+00  -1.2412719653224451e+00  -1.2410630399747489e+00  -1.2408282817749923e+00  0.0000000000000000e+00  -8.6935062558017151e-01  -8.6917218322887480e-01  -8.6904424172503159e-01  -8.6897145642871909e-01  -8.6895144475562369e-01  -8.6898320877881385e-01  -8.6907137886685959e-01  0.0000000000000000e+00  -1.2458744668468635e+00  -1.2461466596705981e+00  -1.2463886180935371e+00  -1.2465051898445370e+00  -1.2465022830313739e+00  -1.2976831221104188e+00  -1.2977148659326259e+00  -1.2976166026355225e+00  -1.2973937648431935e+00  -1.2971380996618567e+00  0.0000000000000000e+00  -8.7034275696755881e-01  -8.7019045811070939e-01  -8.7007263919314171e-01  -8.7000752573882312e-01  -8.6998492794264148e-01  -8.6997797835330293e-01  -8.7000255239184976e-01  0.0000000000000000e+00  -1.3014709043352093e+00  -1.3017679452121091e+00  -1.3020333024969932e+00  -1.3021804591075938e+00  -1.3021906861622401e+00  -1.3546327850970108e+00  -1.3545620327299066e+00  -1.3543874761299388e+00  -1.3541048137649685e+00  -1.3537914102650492e+00  0.0000000000000000e+00  -8.7112488680559297e-01  -8.7105748998836019e-01  -8.7090663671853730e-01  -8.7082799292451241e-01  -8.7083356154566860e-01  -8.7098602752139009e-01  -8.7127135775386011e-01  0.0000000000000000e+00  -1.3577222365968269e+00  -1.3579288313489291e+00  -1.3581886858736838e+00  -1.3583059001083646e+00  -1.3583109182263544e+00  -1.4114348263712855e+00  -1.4114740078477488e+00  -1.4114117941588205e+00  -1.4112862743273555e+00  -1.4110974220292811e+00  0.0000000000000000e+00  -8.7269666497458831e-01  -8.7171146720765758e-01  -8.7132645587596136e-01  -8.7122154343178893e-01  -8.7132822217044603e-01  -8.7166276131746112e-01  -8.7163288679794582e-01  0.0000000000000000e+00  -1.4139810187149782e+00  -1.4143903571325700e+00  -1.4146624944623578e+00  -1.4148457406271688e+00  -1.4148921799548426e+00  -1.4693699658034918e+00  -1.4693232175243895e+00  -1.4692172013676779e+00  -1.4690099592649073e+00  -1.4688838980202721e+00  0.0000000000000000e+00  0.0000000000000000e+00  0.0000000000000000e+00  0.0000000000000000e+00  0.0000000000000000e+00  0.0000000000000000e+00  0.0000000000000000e+00  0.0000000000000000e+00  0.0000000000000000e+00  -1.4719220165825204e+00  -1.4719095799603403e+00  -1.4719251271181164e+00  -1.4718659772001155e+00  -1.4718354217220198e+00  -1.5264483254551693e+00  -1.5264271574706660e+00  -1.5264129119265926e+00  -1.5264949278840072e+00  -1.5264551194663394e+00  0.0000000000000000e+00  0.0000000000000000e+00  0.0000000000000000e+00  0.0000000000000000e+00  0.0000000000000000e+00  0.0000000000000000e+00  0.0000000000000000e+00  0.0000000000000000e+00  0.0000000000000000e+00  -1.5285359301178782e+00  -1.5285041834526183e+00  -1.5285263374884412e+00  -1.5286572785465558e+00  -1.5286713017145122e+00  -1.5847289201591477e+00  -1.5847779519975014e+00  -1.5847508823351117e+00  -1.5845186061283882e+00  -1.5845208456906053e+00  0.0000000000000000e+00  0.0000000000000000e+00  0.0000000000000000e+00  0.0000000000000000e+00  0.0000000000000000e+00  0.0000000000000000e+00  0.0000000000000000e+00  0.0000000000000000e+00  0.0000000000000000e+00  -1.5861905188423353e+00  -1.5862159635264543e+00  -1.5861827386709646e+00  -1.5859540568525714e+00  -1.5859626944478022e+00  -1.6426524199418988e+00  -1.6423439964247675e+00  -1.6419755995598031e+00  -1.6419719080754192e+00  -1.6420082847940989e+00  0.0000000000000000e+00  0.0000000000000000e+00  0.0000000000000000e+00  0.0000000000000000e+00  0.0000000000000000e+00  0.0000000000000000e+00  0.0000000000000000e+00  0.0000000000000000e+00  0.0000000000000000e+00  -1.6433758383290440e+00  -1.6430588072750425e+00  -1.6426949300630056e+00  -1.6426918593891295e+00  -1.6427270499825077e+00  -1.7020681576277563e+00  -1.6990503352814836e+00  -1.6995081597892647e+00  -1.6996100758614752e+00  -1.6975358150659148e+00  0.0000000000000000e+00  0.0000000000000000e+00  0.0000000000000000e+00  0.0000000000000000e+00  0.0000000000000000e+00  0.0000000000000000e+00  0.0000000000000000e+00  0.0000000000000000e+00  0.0000000000000000e+00  -1.7019779238787358e+00  -1.6990598324353339e+00  -1.6995124020586574e+00  -1.6996114079937925e+00  -1.6975845046802718e+00  </DataArray> 
</PointData> 
</Piece>
</UnstructuredGrid>
</VTKFile>