<?xml version="1.0"?>
<VTKFile type="UnstructuredGrid"  version="0.1"  >
<UnstructuredGrid>
<Piece  NumberOfPoints="589" NumberOfCells="1080">
<Points>
<DataArray  type="Float64"  NumberOfComponents="3"  format="ascii">-9 0 0  -8 0 0  -7 0 0  -6 0 0  -5 0 0  -4 0 0  -3 0 0  -2 0 0  -1 0 0  0 0 0  1 0 0  2 0 0  3 0 0  4 0 0  5 0 0  6 0 0  7 0 0  8 0 0  9 0 0  -9 2 0  -8.0000081507137 1.999987576876025 0  -7.000017109836927 1.999976696457142 0  -6.000028785191756 1.999968612787611 0  -5.000047543250809 1.999963880020001 0  -4.000028026931611 1.99997295843703 0  -3.000007946293985 1.999981636095475 0  -1.999998164702 1.999989807401469 0  -0.9999965620802671 1.999996262914005 0  -6.069664719080471e-08 1.999999079325768 0  0.999996099234293 1.999997075954291 0  1.99999654923548 1.999990719324851 0  3.000004411186358 1.999982916284712 0  4.000020677750959 1.999974530362999 0  5.00004428629357 1.99997098578585 0  6.00002680879042 1.999972265415946 0  7.000015980143106 1.999978634208596 0  8.000007639898293 1.999988441551904 0  9 2 0  -9 4 0  -8.000013067591892 3.999968983815378 0  -7.000023354798864 3.999942206573285 0  -6.000029239467071 3.99992382232492 0  -5.00003106777136 3.999917795763687 0  -4.000002539260961 3.99992197648497 0  -2.999983392006847 3.99994649919467 0  -1.999978398894049 3.999978461644117 0  -0.9999856896605068 4.000004173793613 0  3.378548087277946e-07 4.000014497683671 0  0.9999860864147048 4.000006273077362 0  1.999977862594176 3.999984188671462 0  2.999981985914456 3.99995428664806 0  4.00000038799724 3.999924142530739 0  5.000028449320411 3.999913805367089 0  6.000027021935587 3.99992417479809 0  7.000022006416033 3.999943515205339 0  8.000012478013945 3.999969879709226 0  9 4 0  -9 6 0  -8.00002910491337 5.999933439351605 0  -7.00004720983841 5.999874148759469 0  -6.000045919190126 5.999829605021957 0  -5.000022818510663 5.999806985652434 0  -3.999967007131363 5.999843314815973 0  -2.999941601313567 5.999919392570774 0  -1.999951560525404 5.999999178782764 0  -0.9999765091233594 6.000043563510015 0  -1.799968718871607e-06 6.000052430419131 0  0.9999754310389943 6.000037909137735 0  1.999958085065524 5.999997819888711 0  2.999951648071387 5.99993008723177 0  3.999965011488123 5.999859779024743 0  5.000012940990915 5.999824755424245 0  6.000041587575081 5.999840204084061 0  7.00004608299706 5.999880304206851 0  8.000029112780073 5.99993629890037 0  9 6 0  -9 8 0  -8.000089129399454 7.999868834850332 0  -7.000148639466979 7.999747125280613 0  -6.00014983445719 7.99964771178414 0  -5.000068133914107 7.999591758490157 0  -3.999960175256646 7.99975988403229 0  -2.999979830806316 7.999957487208318 0  -2.000020133842709 8.000053889618084 0  -1.000023474915077 8.000065021690014 0  6.799155459967506e-07 8.000068293547763 0  1.000018683694065 8.000078035904616 0  2.000011134642719 8.000037432465815 0  2.999963925504386 7.999968333676756 0  3.99994794375473 7.999797312038855 0  5.000054607283445 7.999604298630256 0  6.000152742242452 7.999657657812706 0  7.000156004076507 7.999753538151098 0  8.000094302259361 7.999871910054514 0  9 8 0  -9 10 0  -8.000267529356444 9.999766490129481 0  -7.000483219817237 9.999531044608268 0  -6.000585227166499 9.999292187582824 0  -5.000487375527088 9.999049544051354 0  -4.000316386832048 9.999592156117064 0  -3.000343947237878 10.0000587369159 0  -2.000274243623704 9.999978772158549 0  -1.000123825331354 9.999953100452 0  -1.282265335218411e-05 9.999946820114353 0  1.000097427216859 9.999947251261972 0  2.000244396880012 9.999944116016605 0  3.000373576661273 10.00011302699887 0  4.000357080829314 9.999666506150973 0  5.00055292560346 9.999077236371097 0  6.00064316797203 9.99930519808801 0  7.000525639803254 9.999536901578944 0  8.00028980179302 9.999768709774132 0  9 10 0  -9 12 0  -8.000652813281992 11.99967206314758 0  -7.001271762249102 11.99932890544145 0  -6.001818566614577 11.99895232463665 0  -5.002245689022992 11.99851694666579 0  -4.002158508935163 11.9995057105453 0  -3.002237209483994 12.00048449399916 0  -2.001529431509707 12.00036688401911 0  -1.000743422470767 12.00030373755666 0  7.189619057728401e-05 12.00029236159692 0  1.000894676428552 12.00033487960221 0  2.001706335334448 12.00044337375054 0  3.002469874331706 12.00064800606186 0  4.002384394554579 11.99957562860143 0  5.002441140501646 11.99849425779629 0  6.001963583027375 11.99893816636988 0  7.001367967593164 11.99932008884696 0  8.00070082133163 11.99966773177981 0  9 12 0  -9 14 0  -8.001172581988051 13.9996387174065 0  -7.002347325764933 13.99926080116748 0  -6.003527969048319 13.99884815075651 0  -5.004722241858124 13.99837978705577 0  -4.004734965050158 13.99953435764695 0  -3.004741742725803 14.00070348665921 0  -2.003099381760326 14.00053750756836 0  -1.001481051279045 14.00044761643342 0  0.0001270247749726021 14.000422627623 0  1.00173787953037 14.00045897322132 0  2.00336351941409 14.00055861385461 0  3.005013292357287 14.00072694100085 0  4.005025390105449 13.99953318404281 0  5.005033121160571 13.99834671122603 0  6.003753828298787 13.9988198656696 0  7.002495011217601 13.99924086508156 0  8.0012456628012 13.99962851073164 0  9 14 0  -9 16 0  -8.001682378101126 15.99967203775737 0  -7.003397106906915 15.99933191236763 0  -6.005179335576604 15.99896724975995 0  -5.007069894226519 15.99856544463812 0  -4.007137720693698 15.99954844750211 0  -3.007073671042821 16.00052617594399 0  -2.004576659476731 16.0004048533808 0  -1.002179159724071 16.0003327526494 0  0.000171124784715944 16.0003083405632 0  1.002523592200483 16.00033066079718 0  2.004927625030215 16.00039988241117 0  3.007435745199256 16.00051704884735 0  4.007507038218271 15.99950186568977 0  5.007444497433302 15.99848587113165 0  6.005458105752666 15.99891072397177 0  7.003581714354257 15.99929543343942 0  8.001774288587962 15.99965411408295 0  9 16 0  -9 18 0  -8.002061373432891 17.99975404506274 0  -7.004174384478882 17.99950131104872 0  -6.00639335300087 17.99923514314251 0  -5.008777922764944 17.99894915712802 0  -4.008880118607264 17.99955140653103 0  -3.008781502940867 18.00015281951394 0  -2.005660322146436 18.00007619935187 0  -1.002690466435246 18.00002805324155 0  0.0002064404087052902 18.00000803374836 0  1.003104967877515 18.00001563344884 0  2.006079581272532 18.00005022585747 0  3.009208294693324 18.00011091795932 0  4.009312530315763 17.99947860172442 0  5.009213158353698 17.99884807215327 0  6.006717732412795 17.99916250320486 0  7.004389631241038 17.99945433108838 0  8.002168692235749 17.99973097502641 0  9 18 0  -9 20 0  -8.002232524993397 19.9998631472893 0  -7.004525268630207 19.99972448002018 0  -6.006940745511813 19.99958238663003 0  -5.009546059203355 19.99943565126618 0  -4.0096625613422 19.99955122208608 0  -3.009547338111922 19.99966583869926 0  -2.006143690641346 19.99963430139664 0  -1.002912337234192 19.99961152193402 0  0.0002351978483893263 19.99959792359278 0  1.003384191073835 19.99959328745574 0  2.006619891194472 19.99959677520668 0  3.010030704462052 19.9996068733074 0  4.010148448370709 19.99946717558475 0  5.010032242135629 19.99932866088933 0  6.007303272455168 19.99950479440831 0  7.004765946764428 19.99967401180163 0  8.002352562372616 19.99983829082744 0  8.999999999994971 19.9999999999934 0  -9 22 0  -8.002161603630237 21.99997948406052 0  -7.004382666308632 21.99996134968947 0  -6.00672451309104 21.99994820596709 0  -5.00925218042861 21.99994312193892 0  -4.009366188939072 21.99954643382877 0  -3.00925299005413 21.99914865125807 0  -2.005942965960076 21.99915758957679 0  -1.002801323028682 21.99915850477263 0  0.0002581325758859225 21.99915220405779 0  1.003318992266287 21.99913866789413 0  2.00646484303687 21.99911706570701 0  3.009781868931833 21.99908574070209 0  4.009895312962581 21.99946366781771 0  5.009779170365249 21.99984219885729 0  6.007117633965766 21.99987473369047 0  7.00464372931688 21.99991341946781 0  8.002291824971241 21.99995583439874 0  9 22 0  -9 24 0  -8.001851608674606 24.0000862971811 0  -7.003754309974014 24.00017825826723 0  -6.005760643023813 24.00028178057798 0  -5.007925924972448 24.00040324629039 0  -4.008024196446557 23.99953716262941 0  -3.007927655402314 23.99867005588881 0  -2.005073660998928 23.99871277233962 0  -1.002363836732935 23.99873416529132 0  0.0002755781169084096 23.99873523918137 0  1.0029163742872 23.99871611194709 0  2.005630348909328 23.99867601900006 0  3.008491284243212 23.99861330731934 0  4.00858622723458 23.99946587342466 0  5.008484029175933 24.00031870839468 0  6.006177060424025 24.00022003461209 0  7.004030886019423 24.00013788342869 0  8.001989577646933 24.00006634700695 0  9 24 0  -9 26 0  -8.001335825826706 26.00017048175223 0  -7.002708642054396 26.00034893898037 0  -6.00415646679243 26.00054358399157 0  -5.005719147141495 26.0007631221263 0  -4.005791577972429 25.99952392605161 0  -3.005722695924151 25.99828390520694 0  -2.003632446338385 25.99835279976966 0  -1.001646873807031 25.99839065435751 0  0.0002877048973856534 25.99839862614681 0  1.002223637913299 25.99837695472063 0  2.004213282055874 25.99832496306862 0  3.00631034641232 25.99824105534031 0  4.006376293053364 25.99947178158573 0  5.006298632027916 26.00070254080969 0  6.004588941637564 26.00049923838957 0  7.002995932107956 26.00031989404442 0  8.001479154338723 26.00015611460995 0  9 26 0  -9 28 0  -8.000670433371184 28.00022279511343 0  -7.001359939429645 28.00045488885684 0  -6.002088180889045 28.00070582041478 0  -5.002875688907942 28.00098561853036 0  -4.00291534277394 27.99950792560696 0  -3.002881302407275 27.99802975783611 0  -2.001777200427015 27.99811651374729 0  -1.000728053671018 27.99816619520332 0  0.000294622631928093 27.99818009811125 0  1.001318613479455 27.99815857925407 0  2.002371708931534 27.99810105690559 0  3.003482409344773 27.99800600945032 0  4.003512688731159 27.99948003489619 0  5.003467024990895 28.0009540105286 0  6.002529611994182 28.00068263535112 0  7.001653235305271 28.00043967936456 0  8.000816778407218 28.00021526345692 
[...]
<PointData  Scalars="f_44-1"> 
<DataArray  type="Float64"  Name="f_44-1"  format="ascii">1.5183279601331391e-03  1.1103623441982582e-05  4.6697523156544775e-05  8.5336832297647317e-05  -1.4710063418030184e-03  0.0000000000000000e+00  0.0000000000000000e+00  0.0000000000000000e+00  0.0000000000000000e+00  0.0000000000000000e+00  0.0000000000000000e+00  0.0000000000000000e+00  0.0000000000000000e+00  0.0000000000000000e+00  1.5264800022652173e-03  1.2061742652288656e-05  4.8212791701883873e-05  7.8437286888719251e-05  -1.4862963871225801e-03  9.3828256570014409e-02  9.3849094714354819e-02  9.3680979380658613e-02  9.3385945493300301e-02  9.3252539420727990e-02  0.0000000000000000e+00  0.0000000000000000e+00  0.0000000000000000e+00  0.0000000000000000e+00  0.0000000000000000e+00  0.0000000000000000e+00  0.0000000000000000e+00  0.0000000000000000e+00  0.0000000000000000e+00  9.3793248161561107e-02  9.3807814654245730e-02  9.3632634135715431e-02  9.3335044389777952e-02  9.3197673361875871e-02  1.8728790184971708e-01  1.8726993951150736e-01  1.8722482201575705e-01  1.8718689892276777e-01  1.8720410413122468e-01  0.0000000000000000e+00  0.0000000000000000e+00  0.0000000000000000e+00  0.0000000000000000e+00  0.0000000000000000e+00  0.0000000000000000e+00  0.0000000000000000e+00  0.0000000000000000e+00  0.0000000000000000e+00  1.8717475752259513e-01  1.8717801376024598e-01  1.8715043650647609e-01  1.8711669266554276e-01  1.8713057670994579e-01  2.8088294653726581e-01  2.8088195148999801e-01  2.8088560594158446e-01  2.8089231371973677e-01  2.8088187057915637e-01  0.0000000000000000e+00  0.0000000000000000e+00  0.0000000000000000e+00  0.0000000000000000e+00  0.0000000000000000e+00  0.0000000000000000e+00  0.0000000000000000e+00  0.0000000000000000e+00  0.0000000000000000e+00  2.8074282087136415e-01  2.8073712231894915e-01  2.8074350669909770e-01  2.8075090725459206e-01  2.8075810912274590e-01  3.7453055905971766e-01  3.7451452076648911e-01  3.7446110981705671e-01  3.7434346009352276e-01  3.7426639293280306e-01  0.0000000000000000e+00  0.0000000000000000e+00  0.0000000000000000e+00  0.0000000000000000e+00  0.0000000000000000e+00  0.0000000000000000e+00  0.0000000000000000e+00  0.0000000000000000e+00  0.0000000000000000e+00  3.7425789181305380e-01  3.7432897230918022e-01  3.7435795298514607e-01  3.7437809397547672e-01  3.7439050604534974e-01  4.6827598996932873e-01  4.6825860458065682e-01  4.6822048968335567e-01  4.6820142935959291e-01  4.6819832598878358e-01  0.0000000000000000e+00  1.4525888082091092e+00  1.4524605986520522e+00  1.4525276141234651e+00  1.4524977787377553e+00  1.4525418657559617e+00  1.4525354015933032e+00  1.4518133949517806e+00  0.0000000000000000e+00  4.6794660811155731e-01  4.6797832129635136e-01  4.6800484229612210e-01  4.6804023130565292e-01  4.6805895035245437e-01  5.6211535628263398e-01  5.6208766956305356e-01  5.6201342428864676e-01  5.6190507663158618e-01  5.6169382152329395e-01  0.0000000000000000e+00  1.4525851136556991e+00  1.4524981820717011e+00  1.4524428741089037e+00  1.4524080603303076e+00  1.4524410514482078e+00  1.4524932887398261e+00  1.4527740111371763e+00  0.0000000000000000e+00  5.6140944570901929e-01  5.6156344717268369e-01  5.6170359799780756e-01  5.6178100964096089e-01  5.6181142032451192e-01  6.5614946720459244e-01  6.5611008029150109e-01  6.5598478115542525e-01  6.5577823302741278e-01  6.5545627787575467e-01  0.0000000000000000e+00  1.4526503462528344e+00  1.4523593913825130e+00  1.4521644308061965e+00  1.4521038548682914e+00  1.4521547519244227e+00  1.4523149330977581e+00  1.4525727636274526e+00  0.0000000000000000e+00  6.5500796241778847e-01  6.5535019886332702e-01  6.5558301127090357e-01  6.5572423187654261e-01  6.5576976384211050e-01  7.5053026909590537e-01  7.5048097613166342e-01  7.5030506969432165e-01  7.5000226923946012e-01  7.4954278199942914e-01  0.0000000000000000e+00  1.4520888531316052e+00  1.4516849266961038e+00  1.4514432436049007e+00  1.4513625631062810e+00  1.4514374550626066e+00  1.4516692784005794e+00  1.4520820479967540e+00  0.0000000000000000e+00  7.4901238829254635e-01  7.4950891391703811e-01  7.4985250535361103e-01  7.5004948955624584e-01  7.5010588222228891e-01  8.4540926247176462e-01  8.4535460855605316e-01  8.4514368839949461e-01  8.4477436720567145e-01  8.4422643439594214e-01  0.0000000000000000e+00  1.4508931014217323e+00  1.4503897368763874e+00  1.4500897522216023e+00  1.4499898343021875e+00  1.4500864057557807e+00  1.4503808793808037e+00  1.4508899316271366e+00  0.0000000000000000e+00  8.4371646046336657e-01  8.4429424786604190e-01  8.4469324169862803e-01  8.4492164907600131e-01  8.4498302432920946e-01  9.4089415171152568e-01  9.4084005366704471e-01  9.4061766005326186e-01  9.4022515323603639e-01  9.3965226719957828e-01  0.0000000000000000e+00  1.4488210483275190e+00  1.4482734503753769e+00  1.4479525003550782e+00  1.4478477523500801e+00  1.4479557572730257e+00  1.4482795529171546e+00  1.4488319575841542e+00  0.0000000000000000e+00  9.3920257830175835e-01  9.3980112387337389e-01  9.4021264063389942e-01  9.4044641007803209e-01  9.4050599037575910e-01  1.0370247406313626e+00  1.0369771021804788e+00  1.0367685364766601e+00  1.0363984089999465e+00  1.0358654588185703e+00  0.0000000000000000e+00  1.4458083418117194e+00  1.4452760651760785e+00  1.4449677724136740e+00  1.4448683520818895e+00  1.4449758760389562e+00  1.4452943055909842e+00  1.4458315018200651e+00  0.0000000000000000e+00  1.0355065656051690e+00  1.0360592453632627e+00  1.0364377159404550e+00  1.0366514743910751e+00  1.0367033487332775e+00  1.1337662133410649e+00  1.1337300728421593e+00  1.1335585934422536e+00  1.1332526037482529e+00  1.1328187999165498e+00  0.0000000000000000e+00  1.4418797909792096e+00  1.4414207060964068e+00  1.4411583449714722e+00  1.4410751789568195e+00  1.4411706594704903e+00  1.4414490869920686e+00  1.4419126425613096e+00  0.0000000000000000e+00  1.1325673725662000e+00  1.1330142674758934e+00  1.1333183918022740e+00  1.1334891618762721e+00  1.1335282415112318e+00  1.2310141512404387e+00  1.2309931161161365e+00  1.2308772963670291e+00  1.2306689446024626e+00  1.2303814926277052e+00  0.0000000000000000e+00  1.4371612502744391e+00  1.4368249819773675e+00  1.4366369006761961e+00  1.4365790875997531e+00  1.4366523351630611e+00  1.4368608780024572e+00  1.4372012068459954e+00  0.0000000000000000e+00  1.2302405126164109e+00  1.2305345564455079e+00  1.2307322932215332e+00  1.2308423219811047e+00  1.2308650620793511e+00  1.3286077866042405e+00  1.3286036888015218e+00  1.3285555886889744e+00  1.3284669064480084e+00  1.3283563283173534e+00  0.0000000000000000e+00  1.4318637352760857e+00  1.4316862391197214e+00  1.4315926426744325e+00  1.4315665486867728e+00  1.4316099582336561e+00  1.4317266783887601e+00  1.4319078735583339e+00  0.0000000000000000e+00  1.3283173982551570e+00  1.3284286744712896e+00  1.3284999744677151e+00  1.3285384091394110e+00  1.3285431510790675e+00  1.4263489515597878e+00  1.4263617127954460e+00  1.4263858373291272e+00  1.4264255394200573e+00  1.4265030278086273e+00  0.0000000000000000e+00  1.4262599089963135e+00  1.4262600044763964e+00  1.4262709729260898e+00  1.4262795935100194e+00  1.4262888594908156e+00  1.4263018393922369e+00  1.4263051908363924e+00  0.0000000000000000e+00  1.4265485727855840e+00  1.4264668957892497e+00  1.4264054209978976e+00  1.4263692014735101e+00  1.4263562873401712e+00  1.5240242754915470e+00  1.5240519618492574e+00  1.5241449772043136e+00  1.5243079309466123e+00  1.5245645805794379e+00  0.0000000000000000e+00  1.4206552620631134e+00  1.4208329009362490e+00  1.4209474089602490e+00  1.4209900508874040e+00  1.4209645356470590e+00  1.4208729387511478e+00  1.4206986508391950e+00  0.0000000000000000e+00  1.5246705738088395e+00  1.5244061117097985e+00  1.5242195699047048e+00  1.5241135612837580e+00  1.5240852421148374e+00  1.6214282631596075e+00  1.6214673365553849e+00  1.6216185555333771e+00  1.6218865461519778e+00  1.6222944150496326e+00  0.0000000000000000e+00  1.4153560833391978e+00  1.4156923789818812e+00  1.4158983682805317e+00  1.4159706945261810e+00  1.4159134507017246e+00  1.4157275237554663e+00  1.4153946549432930e+00  0.0000000000000000e+00  1.6224332734902107e+00  1.6220153385812053e+00  1.6217245451164626e+00  1.6215609306089929e+00  1.6215210833968057e+00  1.7183852122750365e+00  1.7184309569287930e+00  1.7186234610579425e+00  1.7189670520876932e+00  1.7194819403778703e+00  0.0000000000000000e+00  1.4106370611128642e+00  1.4110960773667418e+00  1.4113715830747673e+00  1.4114659939806291e+00  1.4113834237217795e+00  1.4111234454824493e+00  1.4106681018176768e+00  0.0000000000000000e+00  1.7196255631400854e+00  1.7190996638703002e+00  1.7187363645632694e+00  1.7185333266455305e+00  1.7184870099305387e+00  1.8147671121011535e+00  1.8148140517483022e+00  1.8150264655098245e+00  1.8154084815051035e+00  1.8159746820405267e+00  0.0000000000000000e+00  1.4067114100109315e+00  1.4072437184918567e+00  1.4075589698114601e+00  1.4076653287209551e+00  1.4075665343232930e+00  1.4072608030130322e+00  1.4067325919114597e+00  0.0000000000000000e+00  1.8160975279725595e+00  1.8155205449706677e+00  1.8151240094611358e+00  1.8149037978861589e+00  1.8148566608247547e+00  1.9105087418121975e+00  1.9105516571592540e+00  1.9107611159523745e+00  1.9111406622556424e+00  1.9116969984027994e+00  0.0000000000000000e+00  1.4037067952980165e+00  1.4042542807441669e+00  1.4045748909402622e+00  1.4046817403650602e+00  1.4045776189690875e+00  1.4042592116971486e+00  1.4037157967284450e+00  0.0000000000000000e+00  1.9117764284871699e+00  1.9112102003809412e+00  1.9108232176986382e+00  1.9106094753546172e+00  1.9105670420603140e+00  2.0056080474450506e+00  2.0056419923158728e+00  2.0058265094381955e+00  2.0061645233415750e+00  2.0066514596624780e+00  0.0000000000000000e+00  1.4016476888795197e+00  1.4021522521365419e+00  1.4024438950745610e+00  1.4025394022110225e+00  1.4024399789359339e+00  1.4021422147657414e+00  1.4016428159318730e+00  0.0000000000000000e+00  2.0066739737357091e+00  2.0061808986636875e+00  2.0058426999227024e+00  2.0056573239974025e+00  2.0056240693933916e+00  2.1001352565699523e+00  2.1001599544234448e+00  2.1003018002776197e+00  2.1005615474289212e+00  2.1009255342668101e+00  0.0000000000000000e+00  1.4004565545883827e+00  1.4008657982124926e+00  1.4010954060188565e+00  1.4011694621668851e+00  1.4010892364669547e+00  1.4008492215342572e+00  1.4004483886844230e+00  0.0000000000000000e+00  2.1009054534761895e+00  2.1005181832188433e+00  2.1002612654251993e+00  2.1001207449670236e+00  2.1000995071652016e+00  2.1941961698407555e+00  2.1942065380702243e+00  2.1942995587100356e+00  2.1945006655207875e+00  2.1947654789863700e+00  0.0000000000000000e+00  1.3999680255680442e+00  1.4002231636069566e+00  1.4003820531251168e+00  1.4004322994006286e+00  1.4003715235655250e+00  1.4001767734977959e+00  1.3998879248054752e+00  0.0000000000000000e+00  2.1945789078635918e+00  2.1943730715628873e+00  2.1942139065460826e+00  2.1941276263940330e+00  2.1941181344883822e+00  2.2879385715788572e+00  2.2879435113119784e+00  2.2879997121783879e+00  2.2880942092639533e+00  2.2881457191176393e+00  0.0000000000000000e+00  1.3997676141761248e+00  1.4000480594497977e+00  1.4001000028311585e+00  1.4001327367499075e+00  1.4000978091380754e+00  1.4000424705757821e+00  1.3999546416818551e+00  0.0000000000000000e+00  2.2881056472028032e+00  2.2879395197797683e+00  2.2878721984706485e+00  2.2878350156699492e+00  2.2878360096799417e+00  2.3815150372296574e+00  2.3815079992667814e+00  2.3815106916041415e+00  2.3814833626105179e+00  2.3814825841676877e+00  0.0000000000000000e+00  1.4007296763071808e+00  1.4000084252976330e+00  1.4000030024149506e+00  1.4000468605388123e+00  1.4000171248833888e+00  1.4000832220533255e+00  1.3999563689083676e+00  0.0000000000000000e+00  2.3812288022226418e+00  2.3813562434519335e+00  2.3813929376737275e+00  2.3814074656573592e+00  2.3814134927812072e+00  2.4750308571618591e+00  2.4750445414165076e+00  2.4750288392418964e+00  2.4750134976870362e+00  2.4750306355581957e+00  0.0000000000000000e+00  0.0000000000000000e+00  0.0000000000000000e+00  0.0000000000000000e+00  0.0000000000000000e+00  0.0000000000000000e+00  0.0000000000000000e+00  0.0000000000000000e+00  0.0000000000000000e+00  2.4749004368642691e+00  2.4749342969226684e+00  2.4749522653063143e+00  2.4749718146926294e+00  2.4749925334830736e+00  2.5686865368490412e+00  2.5686443940322214e+00  2.5686452882077848e+00  2.5686580174526727e+00  2.5686174840198324e+00  0.0000000000000000e+00  0.0000000000000000e+00  0.0000000000000000e+00  0.0000000000000000e+00  0.0000000000000000e+00  0.0000000000000000e+00  0.0000000000000000e+00  0.0000000000000000e+00  0.0000000000000000e+00  2.5686674266474809e+00  2.5686157082768521e+00  2.5686290409624326e+00  2.5686592319008481e+00  2.5686423943931587e+00  2.6620101425032954e+00  2.6620090149019333e+00  2.6620482726157140e+00  2.6619684190811905e+00  2.6619223206687965e+00  0.0000000000000000e+00  0.0000000000000000e+00  0.0000000000000000e+00  0.0000000000000000e+00  0.0000000000000000e+00  0.0000000000000000e+00  0.0000000000000000e+00  0.0000000000000000e+00  0.0000000000000000e+00  2.6620160147381235e+00  2.6620172720589830e+00  2.6620552487411331e+00  2.6619800147148136e+00  2.6619426722783133e+00  2.7554078342669892e+00  2.7559427952836817e+00  2.7560919670965269e+00  2.7563807742356849e+00  2.7569143041837005e+00  0.0000000000000000e+00  0.0000000000000000e+00  0.0000000000000000e+00  0.0000000000000000e+00  0.0000000000000000e+00  0.0000000000000000e+00  0.0000000000000000e+00  0.0000000000000000e+00  0.0000000000000000e+00  2.7554682327586169e+00  2.7559670396875520e+00  2.7560991987136947e+00  2.7563708030457148e+00  2.7568810011321765e+00  2.8531567708243810e+00  2.8492096630807642e+00  2.8487777422205087e+00  2.8492421069983305e+00  2.8470484058857375e+00  0.0000000000000000e+00  0.0000000000000000e+00  0.0000000000000000e+00  0.0000000000000000e+00  0.0000000000000000e+00  0.0000000000000000e+00  0.0000000000000000e+00  0.0000000000000000e+00  0.0000000000000000e+00  2.8531183238655387e+00  2.8492166347354573e+00  2.8487819930348564e+00  2.8492414511600677e+00  2.8470735786664285e+00  </DataArray> 
</PointData> 
</Piece>
</UnstructuredGrid>
</VTKFile>