<?xml version="1.0"?>
<VTKFile type="UnstructuredGrid"  version="0.1"  >
<UnstructuredGrid>
<Piece  NumberOfPoints="589" NumberOfCells="1080">
<Points>
<DataArray  type="Float64"  NumberOfComponents="3"  format="ascii">-9 0 0  -8 0 0  -7 0 0  -6 0 0  -5 0 0  -4 0 0  -3 0 0  -2 0 0  -1 0 0  0 0 0  1 0 0  2 0 0  3 0 0  4 0 0  5 0 0  6 0 0  7 0 0  8 0 0  9 0 0  -9 2 0  -8.00000669410703 1.99999000405887 0  -7.000014029107747 1.999981239232771 0  -6.000023525339342 1.999974705203473 0  -5.000038669673655 1.999970840924965 0  -4.000022942063998 1.999978230806273 0  -3.000006782224665 1.999985227902975 0  -1.999998896492448 1.999991791492499 0  -0.9999975675044809 1.999996982715238 0  -3.388385747645942e-07 1.99999927413733 0  0.9999965779172461 1.999997737425179 0  1.999996855465799 1.999992759337514 0  3.000002952725497 1.999986669286753 0  4.000015610270513 1.999980207593718 0  5.00003391551366 1.999977742877113 0  6.000020401137763 1.999978573708983 0  7.000012116014838 1.999983434313309 0  8.000005784187545 1.999991022271193 0  9 2 0  -9 4 0  -8.000010824503414 3.999975084225412 0  -7.000019413315981 3.999953555702351 0  -6.000024458204918 3.999938731634504 0  -5.000026225808392 3.999933773180785 0  -4.000003354014029 3.999937281563694 0  -2.999988007773709 3.999956990539975 0  -1.999983982681788 3.999982620997836 0  -0.9999897816222447 4.000003247350704 0  -9.297675158885079e-07 4.000011601081364 0  0.9999876734568169 4.000005218614157 0  1.99998102847839 3.999987869270184 0  2.999984133165524 3.999964397190487 0  3.999998506211243 3.999940873473089 0  5.000020512571492 3.999933267385167 0  6.000019885152724 3.999941028690292 0  7.000016418709055 3.999955959804906 0  8.000009377589659 3.999976486074635 0  9 4 0  -9 6 0  -8.000023896942363 5.999946618166954 0  -7.000038973157583 5.999899056922761 0  -6.000038500219468 5.999863298083338 0  -5.000020553914414 5.999845070046883 0  -3.999975953986147 5.999874334786757 0  -2.999955679263835 5.999935318180931 0  -1.999963720146629 5.999999211260369 0  -0.9999837100305005 6.000034715380017 0  -3.907130458963463e-06 6.000041882676468 0  0.9999779668340191 6.000030487851775 0  1.999964169253361 5.999998900794519 0  2.999958989358621 5.999945528591521 0  3.999969454805149 5.999890252118961 0  5.000007295143011 5.999863049033349 0  6.000030725217794 5.999874806791979 0  7.000035019360206 5.999906107373818 0  8.000022315786987 5.999950001813783 0  9 6 0  -9 8 0  -8.000072244670578 7.999894882579405 0  -7.000120724719156 7.99979736231492 0  -6.000122432861288 7.999717754919171 0  -5.000057713592124 7.999673055833694 0  -3.999971356059121 7.999807873448811 0  -2.999987437750669 7.999966230978173 0  -2.000019998781874 8.000043305093156 0  -1.000022854841554 8.000051962459246 0  -3.608883440967766e-06 8.000054462905252 0  1.000010829832976 8.000062203341054 0  2.00000497714261 8.000030262545534 0  2.99996763676639 7.999975883810479 0  3.999955024102656 7.999840908588374 0  5.000039474942938 7.999688573753772 0  6.000118099203728 7.999730432460963 0  7.000121599659766 7.999805893901295 0  8.000073693257686 7.999899113419047 0  9 8 0  -9 10 0  -8.000215585981122 9.99981281062689 0  -7.000389493376169 9.999624097109809 0  -6.000472009123302 9.999432711952043 0  -5.000393914435122 9.999238400332681 0  -4.000256868248554 9.999674001369286 0  -3.000279623124221 10.00004846264052 0  -2.000224274167242 9.999983564070588 0  -1.000103963305204 9.999962740670426 0  -1.547029414264469e-05 9.999957663350511 0  1.000072229128064 9.999958094652495 0  2.000188882031017 9.999955907276068 0  3.000291655121658 10.00009008397788 0  4.000278863312 9.999737217986796 0  5.000433729354527 9.999271507109478 0  6.000505830431165 9.999451753453064 0  7.00041372047636 9.999634707416618 0  8.00022816141427 9.999817594297568 0  9 10 0  -9 12 0  -8.000525340447663 11.99973694705695 0  -7.001023336910225 11.99946170717383 0  -6.001463077733959 11.99915970370741 0  -5.001806223214712 11.99881060491605 0  -4.001736018630321 11.99960553493536 0  -3.001799715591869 12.00039257612758 0  -2.001238344982628 12.00029694267505 0  -1.000613319768593 12.00024489907713 0  3.5917586394012e-05 12.00023425017305 0  1.000691815884009 12.00026659597069 0  2.001339630293366 12.00035144358817 0  3.001950201532871 12.00051263130628 0  4.001883114941466 11.99966564814777 0  5.001927641973113 11.99881168806584 0  6.001549727702784 11.99916248820319 0  7.001079298680085 11.9994639392143 0  8.000552831784388 11.99973809275044 0  9 12 0  -9 14 0  -8.000943848379437 13.9997099578863 0  -7.001889206413678 13.99940659076895 0  -6.002838822814208 13.99907539692357 0  -5.00379865311481 13.9986995667888 0  -4.003808425949618 13.99962970755439 0  -3.003814508359813 14.00057161717487 0  -2.0025082079461 14.00043619477453 0  -1.001220042237102 14.00036168461545 0  6.08021176849865e-05 14.00033904697445 0  1.001344641656418 14.00036532115983 0  2.002641072339268 14.00044195196977 0  3.003957664683535 14.00057311729473 0  4.003968076089879 13.99963272235717 0  5.003973722578661 13.99869818856414 0  6.002962195830022 13.99907110606663 0  7.001968157430517 13.99940265173775 0  8.000982419090722 13.99970773549733 0  9 14 0  -9 16 0  -8.001355467468615 15.9997363532275 0  -7.002736642204248 15.99946295997515 0  -6.004171458641797 15.99916990393215 0  -5.005692408359572 15.99884708855225 0  -4.005746374780971 15.99964207268221 0  -3.005695682024248 16.00043286141063 0  -2.00370772913817 16.00033247904274 0  -1.001798445078253 16.00027152853251 0  7.373708698266109e-05 16.00024869134781 0  1.001948117062818 16.00026310638063 0  2.003864015041239 16.00031480765453 0  3.00586326981504 16.00040452552568 0  4.005920521356232 15.9996085306725 0  5.005870489249638 15.99881192758174 0  6.004302194434008 15.99914554237545 0  7.00282229200568 15.99944744358898 0  8.001397820845691 15.99972877713617 0  9 16 0  -9 18 0  -8.001663356570527 17.99980175678255 0  -7.003367904774581 17.99959806930196 0  -6.00515697828516 17.99938359156025 0  -5.007078178660518 17.99915319847273 0  -4.007159809110642 17.99964519271118 0  -3.007081418428132 18.00013655647572 0  -2.004595387106018 18.00007159655472 0  -1.002229759845486 18.00002949954851 0  7.782478159753445e-05 18.00000990028831 0  1.002386707736738 18.00001230702317 0  2.004756146390392 18.0000361332816 0  3.007248211456808 18.00008058079983 0  4.007331339571073 17.99959042748264 0  5.007252173448277 17.99910172228209 0  6.005285749378634 17.99934704526627 0  7.003452897713265 17.99957463656504 0  8.001705591757819 17.99979030894029 0  9 18 0  -9 20 0  -8.001805647257907 19.99988892358903 0  -7.003659420785082 19.99977636145194 0  -6.005611285433211 19.99966098902732 0  -5.00771488391706 19.99954179946304 0  -4.007808106848091 19.99964552245456 0  -3.007716305071634 19.99974855480287 0  -2.005004600692275 19.99971967527696 0  -1.002430412062712 19.99969790546708 0  7.665216574735591e-05 19.99968350962469 0  1.002584433868912 19.9996762396978 0  2.00516073929468 19.99967535317547 0  3.007875862048929 19.99967956865336 0  4.007969441004147 19.9995814139888 0  5.007877101111354 19.9994842580567 0  6.005732058492336 19.99961953474309 0  7.003739501674112 19.99974953453458 0  8.001845555257766 19.99987575252034 0  8.999999999992626 19.99999999999313 0  -9 22 0  -8.001754663846746 21.99998201745506 0  -7.003556936167895 21.99996589110633 0  -6.005455919427309 21.99995365815258 0  -5.007503693049561 21.9999477215282 0  -4.007595009628584 21.99964206284186 0  -3.007504595147273 21.99933564036712 0  -2.00486696456807 21.99933945335695 0  -1.002364082826851 21.99933696626452 0  7.260241389997798e-05 21.99932876579467 0  1.002509563782326 21.99931477746001 0  2.005013249951482 21.99929427804911 0  3.007652143222539 21.99926588337155 0  4.007742115875026 21.99957853403573 0  5.00765010760897 21.9998917637649 0  6.005565581173305 21.99991312132731 0  7.003629957425063 21.99993954391438 0  8.00179114333759 21.99996904692304 0  9 22 0  -9 24 0  -8.001512456768305 24.00006768707905 0  -7.003065936304417 24.00013984623188 0  -6.004702611939937 24.00022113531002 0  -5.006466895563946 24.00031659570036 0  -4.006545659154287 23.9996351032826 0  -3.006468243568548 23.99895292876299 0  -2.004193450913619 23.99898430807862 0  -1.002034406876411 23.99899876361094 0  6.752112138416835e-05 23.99899705493002 0  1.002169386970593 23.99897923176877 0  2.00432822580299 23.99894463758994 0  3.006602615545429 23.9988919046302 0  4.006677807166784 23.99958023099386 0  5.006597214939241 24.00026889897212 0  6.00480076320314 24.00018642976238 0  7.003131550358014 24.00011721739052 0  8.00154531093065 24.00005652544366 0  9 24 0  -9 26 0  -8.001105259321628 26.00013548450937 0  -7.002240374373327 26.00027728985424 0  -6.003436011228157 26.00043192528737 0  -5.004724315202229 26.00060628931013 0  -4.00478242584274 25.99962517542611 0  -3.004726769678941 25.99864353679435 0  -2.003059944385369 25.9986965746556 0  -1.001477627425845 25.99872493628348 0  6.281627423820269e-05 25.9987295164252 0  1.001602947002341 25.99871047636271 0  2.003184306117594 25.99866724468565 0  3.004849474588782 25.99859851539655 0  4.00490162756357 25.99958504402644 0  5.004840867396007 26.00057173169642 0  6.003524272981174 26.00040671197382 0  7.002299602671697 26.00026081652903 0  8.00113498225466 26.00012734833709 0  9 26 0  -9 28 0  -8.000577596082662 28.00017801706301 0  -7.001170823450523 28.00036342362296 0  -6.001795769773961 28.00056380009518 0  -5.00246923889141 28.00078711444465 0  -4.002501171802247 27.99961323393793 0  -3.002473051428897 27.99843908226188 0  -2.001591344549423 27.99850725033762 0  -1.000754685923646 27.99854593411282 0  5.949463724614516e-05 27.99855615142981 0  1.000873197854455 27.99853817158749 0  2.001708403198605 27.99849151567928 0  3.002587617559922 27.99841495537088 0  4.002611464323422 27.99959191610234 0  5.002576399502152 28.00076894970754 0  6.001877282040335 28.00055051911649 0  7.001225693344644 28.00035473224855 0  8.0006051839286
[...]
<PointData  Scalars="f_44-1"> 
<DataArray  type="Float64"  Name="f_44-1"  format="ascii">1.4527818776882259e-03  9.6022857145903283e-05  7.0732213315342224e-05  1.9186985319238138e-04  -1.7462739143394304e-03  0.0000000000000000e+00  0.0000000000000000e+00  0.0000000000000000e+00  0.0000000000000000e+00  0.0000000000000000e+00  0.0000000000000000e+00  0.0000000000000000e+00  0.0000000000000000e+00  0.0000000000000000e+00  1.4702801000104947e-03  9.5694039230862681e-05  7.1310952936330898e-05  1.8970899571817896e-04  -1.7772908915387440e-03  7.6730644384847155e-02  7.6788681015787036e-02  7.6733556592901042e-02  7.6525169462253156e-02  7.6424014000088178e-02  0.0000000000000000e+00  0.0000000000000000e+00  0.0000000000000000e+00  0.0000000000000000e+00  0.0000000000000000e+00  0.0000000000000000e+00  0.0000000000000000e+00  0.0000000000000000e+00  0.0000000000000000e+00  7.6920204411315349e-02  7.6978081064547191e-02  7.6921139356172494e-02  7.6710339790052123e-02  7.6608399185530876e-02  1.5342624584960304e-01  1.5341934518756845e-01  1.5337923542782411e-01  1.5336096496952836e-01  1.5338249508887419e-01  0.0000000000000000e+00  0.0000000000000000e+00  0.0000000000000000e+00  0.0000000000000000e+00  0.0000000000000000e+00  0.0000000000000000e+00  0.0000000000000000e+00  0.0000000000000000e+00  0.0000000000000000e+00  1.5378798081407180e-01  1.5378661229366039e-01  1.5375200806869127e-01  1.5373878883467756e-01  1.5376696734410350e-01  2.3012717749022646e-01  2.3012064207849303e-01  2.3011403236160641e-01  2.3010707441271616e-01  2.3008682882979456e-01  0.0000000000000000e+00  0.0000000000000000e+00  0.0000000000000000e+00  0.0000000000000000e+00  0.0000000000000000e+00  0.0000000000000000e+00  0.0000000000000000e+00  0.0000000000000000e+00  0.0000000000000000e+00  2.3068121021648058e-01  2.3066670180013321e-01  2.3066331242436008e-01  2.3066479753129512e-01  2.3066306083842616e-01  3.0687179660234520e-01  3.0686098993055233e-01  3.0684106423926810e-01  3.0679079248842761e-01  3.0674999472687570e-01  0.0000000000000000e+00  0.0000000000000000e+00  0.0000000000000000e+00  0.0000000000000000e+00  0.0000000000000000e+00  0.0000000000000000e+00  0.0000000000000000e+00  0.0000000000000000e+00  0.0000000000000000e+00  3.0754120829862797e-01  3.0755438858146383e-01  3.0755567299523268e-01  3.0756117804126187e-01  3.0756558676860141e-01  3.8365207217576036e-01  3.8363696116392304e-01  3.8361839968989170e-01  3.8361539710434506e-01  3.8365716794725535e-01  0.0000000000000000e+00  1.1804904894614552e+00  1.1803987528811892e+00  1.1805412518367504e+00  1.1805538564176201e+00  1.1805537964772121e+00  1.1804355876816834e+00  1.1796732732172770e+00  0.0000000000000000e+00  3.8441240331054971e-01  3.8441893558721529e-01  3.8443216243503597e-01  3.8445596748493777e-01  3.8446832661472963e-01  4.6046848965037124e-01  4.6044328897999254e-01  4.6039352609654699e-01  4.6032414954615769e-01  4.6018628498839431e-01  0.0000000000000000e+00  1.1806128915666330e+00  1.1806311430921228e+00  1.1806339402183537e+00  1.1806108846732211e+00  1.1806112066392038e+00  1.1806070748137900e+00  1.1807809763539714e+00  0.0000000000000000e+00  4.6111329441201682e-01  4.6121511600385939e-01  4.6132425036388169e-01  4.6138902228588502e-01  4.6141357312608483e-01  5.3739977336288325e-01  5.3736353535172132e-01  5.3727228565978580e-01  5.3712452145224032e-01  5.3690359688586275e-01  0.0000000000000000e+00  1.1810372973181769e+00  1.1808305810737174e+00  1.1806867281241658e+00  1.1806357146733786e+00  1.1806543720696103e+00  1.1807374003804059e+00  1.1808842077900419e+00  0.0000000000000000e+00  5.3792556875762565e-01  5.3817445771047623e-01  5.3835555660755696e-01  5.3846338529363047e-01  5.3850034197835073e-01  6.1455925610878503e-01  6.1451444961819113e-01  6.1438624498423133e-01  6.1417176207410473e-01  6.1385035217202544e-01  0.0000000000000000e+00  1.1809127756853879e+00  1.1806390008137428e+00  1.1804690726995561e+00  1.1804032257559847e+00  1.1804372267698831e+00  1.1805711307120128e+00  1.1808231393554227e+00  0.0000000000000000e+00  6.1507996579823376e-01  6.1541924058693787e-01  6.1566324233491043e-01  6.1580644037546495e-01  6.1585163619452621e-01  6.9205187229018983e-01  6.9200298769613389e-01  6.9185188788057506e-01  6.9159536821694179e-01  6.9121629409263763e-01  0.0000000000000000e+00  1.1803930762205290e+00  1.1800489693565930e+00  1.1798389540587828e+00  1.1797605671352080e+00  1.1798110999736264e+00  1.1799907707900823e+00  1.1803142502374735e+00  0.0000000000000000e+00  6.9271176357053454e-01  6.9309227916107941e-01  6.9336047606438578e-01  6.9351816557630119e-01  6.9356577488642390e-01  7.6994662404276948e-01  7.6989882250922048e-01  7.6974249472753720e-01  7.6947517003495414e-01  7.6908311241298666e-01  0.0000000000000000e+00  1.1792913966669381e+00  1.1789168255882800e+00  1.1786931663637479e+00  1.1786120320974858e+00  1.1786717420376007e+00  1.1788738868095920e+00  1.1792286505639291e+00  0.0000000000000000e+00  7.7084893221966999e-01  7.7122996177545355e-01  7.7149436818054296e-01  7.7164906820822166e-01  7.7169382083085181e-01  8.4826470420390798e-01  8.4822289438759368e-01  8.4807910301328238e-01  8.4783176106395364e-01  8.4747057390097180e-01  0.0000000000000000e+00  1.1775644678814434e+00  1.1771994628324880e+00  1.1769848081871175e+00  1.1769079694322520e+00  1.1769685305142432e+00  1.1771689447833629e+00  1.1775150547370878e+00  0.0000000000000000e+00  8.4949488433306442e-01  8.4983314703950041e-01  8.5006423068144876e-01  8.5019895058837103e-01  8.5023594129843805e-01  9.2697807427810497e-01  9.2694633649290981e-01  9.2683081249543919e-01  9.2663077960192464e-01  9.2633960158454676e-01  0.0000000000000000e+00  1.1752282528282207e+00  1.1749115474080294e+00  1.1747278560237320e+00  1.1746622739354855e+00  1.1747155012506840e+00  1.1748905220803878e+00  1.1751884461895254e+00  0.0000000000000000e+00  9.2859043275855835e-01  9.2884848699971256e-01  9.2902098243474285e-01  9.2912116136386624e-01  9.2914646440812632e-01  1.0060143500973768e+00  1.0059955460470877e+00  1.0059204731979752e+00  1.0057890610726130e+00  1.0055984826879820e+00  0.0000000000000000e+00  1.1723656585194262e+00  1.1721305265015018e+00  1.1719965406719643e+00  1.1719481082424259e+00  1.1719869157362017e+00  1.1721161875952020e+00  1.1723324001672899e+00  0.0000000000000000e+00  1.0080274923925601e+00  1.0081770374165253e+00  1.0082723343750499e+00  1.0083273434290807e+00  1.0083383890429061e+00  1.0852661338339800e+00  1.0852616616671034e+00  1.0852345816498596e+00  1.0851851874580685e+00  1.0851144150893046e+00  0.0000000000000000e+00  1.1691171132281921e+00  1.1689877537027582e+00  1.1689168284556601e+00  1.1688896832078925e+00  1.1689088091320632e+00  1.1689773862194630e+00  1.1690876525874601e+00  0.0000000000000000e+00  1.0876613556738746e+00  1.0876857951114223e+00  1.0876935305728597e+00  1.0876976174920365e+00  1.0876934013065447e+00  1.1646035632458145e+00  1.1646132558720002e+00  1.1646364351757672e+00  1.1646734358001716e+00  1.1647286639650591e+00  0.0000000000000000e+00  1.1656645147238500e+00  1.1656536918689751e+00  1.1656524554417034e+00  1.1656485349484107e+00  1.1656449934390485e+00  1.1656447038555793e+00  1.1656363722717669e+00  0.0000000000000000e+00  1.1673257261284014e+00  1.1672217059088952e+00  1.1671407626138259e+00  1.1670935809576912e+00  1.1670747299288045e+00  1.2438887362780187e+00  1.2439109042032701e+00  1.2439811884621901e+00  1.2440996577872598e+00  1.2442736030650452e+00  0.0000000000000000e+00  1.1622117994964904e+00  1.1623196144847654e+00  1.1623872632659040e+00  1.1624060518757309e+00  1.1623793424939735e+00  1.1623094614568907e+00  1.1621826053139201e+00  0.0000000000000000e+00  1.2468500124983848e+00  1.2466277424209802e+00  1.2464663741016240e+00  1.2463730148150929e+00  1.2463417068296954e+00  1.3229906456226483e+00  1.3230222644098182e+00  1.3231314339738840e+00  1.3233177090161248e+00  1.3235903651961569e+00  0.0000000000000000e+00  1.1589633612283790e+00  1.1591772147317507e+00  1.1593055254629296e+00  1.1593440318425414e+00  1.1592961068243648e+00  1.1591633186394457e+00  1.1589306727553654e+00  0.0000000000000000e+00  1.3260769499895615e+00  1.3257593137105159e+00  1.3255344358826240e+00  1.3254049620353325e+00  1.3253647033009222e+00  1.4017992333868368e+00  1.4018362661589245e+00  1.4019718779165904e+00  1.4022049670634031e+00  1.4025455788628696e+00  0.0000000000000000e+00  1.1561023246657964e+00  1.1563980757217622e+00  1.1565721051917721e+00  1.1566250822631516e+00  1.1565600784159862e+00  1.1563777367210708e+00  1.1560634475703502e+00  0.0000000000000000e+00  1.4048792261586880e+00  1.4044996660879339e+00  1.4042352916877632e+00  1.4040837762300542e+00  1.4040390429134686e+00  1.4802372153726691e+00  1.4802750282211530e+00  1.4804217542012739e+00  1.4806756427338461e+00  1.4810458947930782e+00  0.0000000000000000e+00  1.1537706577454974e+00  1.1541149043717194e+00  1.1543143692681086e+00  1.1543747555040496e+00  1.1542985441027367e+00  1.1540853145128205e+00  1.1537225735902017e+00  0.0000000000000000e+00  1.4831736227656980e+00  1.4827728588357054e+00  1.4824977187610280e+00  1.4823408099882198e+00  1.4822965717288115e+00  1.5582680977672758e+00  1.5583022187478053e+00  1.5584438138495513e+00  1.5586905155038799e+00  1.5590487472073682e+00  0.0000000000000000e+00  1.1520530348084652e+00  1.1524063549991310e+00  1.1526077081196429e+00  1.1526673490538963e+00  1.1525868462565203e+00  1.1523645484770759e+00  1.1519919824816973e+00  0.0000000000000000e+00  1.5609313369001816e+00  1.5605530195634101e+00  1.5602973968987706e+00  1.5601523894176534e+00  1.5601134851066227e+00  1.6359000853262156e+00  1.6359263482173767e+00  1.6360470246118166e+00  1.6362594781124371e+00  1.6365655537331860e+00  0.0000000000000000e+00  1.1509650243793108e+00  1.1512875865741126e+00  1.1514667540629027e+00  1.1515173187481975e+00  1.1514394605648155e+00  1.1512305528366957e+00  1.1508880705361997e+00  0.0000000000000000e+00  1.6381834228518868e+00  1.6378686909304656e+00  1.6376603137078656e+00  1.6375428734289734e+00  1.6375133013215895e+00  1.7131829301938830e+00  1.7131998198392007e+00  1.7132893874920496e+00  1.7134496513772066e+00  1.7136731914431906e+00  0.0000000000000000e+00  1.1504554420432556e+00  1.1507070602339038e+00  1.1508407456205749e+00  1.1508748682519701e+00  1.1508095001690710e+00  1.1506404000928130e+00  1.1503677315725855e+00  0.0000000000000000e+00  1.7150207628423630e+00  1.7147995412767878e+00  1.7146602117734571e+00  1.7145817174437499e+00  1.7145638336583509e+00  1.7901980654784220e+00  1.7902040392988541e+00  1.7902538339516536e+00  1.7903524992120630e+00  1.7904844522588279e+00  0.0000000000000000e+00  1.1503953008324586e+00  1.1505418210080733e+00  1.1506249721099067e+00  1.1506437272281400e+00  1.1505926469353331e+00  1.1504487341329031e+00  1.1502427414221434e+00  0.0000000000000000e+00  1.7915682727169895e+00  1.7914715156210435e+00  1.7914087805792163e+00  1.7913735790799339e+00  1.7913672862666932e+00  1.8670514664896385e+00  1.8670493874863965e+00  1.8670655193049712e+00  1.8670936763452779e+00  1.8670807653600650e+00  0.0000000000000000e+00  1.1504995179469377e+00  1.1506738711197630e+00  1.1506703479963565e+00  1.1506709662614991e+00  1.1506478526305637e+00  1.1506500819390464e+00  1.1506665129138780e+00  0.0000000000000000e+00  1.8680665464547115e+00  1.8680289492578213e+00  1.8680382366326556e+00  1.8680397611249240e+00  1.8680420360457735e+00  1.9438524765254335e+00  1.9438455533145935e+00  1.9438326447744212e+00  1.9437913258799668e+00  1.9437415240307017e+00  0.0000000000000000e+00  1.1516059754173051e+00  1.1508467510932026e+00  1.1507311636632123e+00  1.1507314579211176e+00  1.1507434787120263e+00  1.1508832286720749e+00  1.1507925636691749e+00  0.0000000000000000e+00  1.9444918146199963e+00  1.9446194502675609e+00  1.9446693820224501e+00  1.9446898258814658e+00  1.9446951578227962e+00  2.0206772453961683e+00  2.0206728936590608e+00  2.0206567829223272e+00  2.0206312151011505e+00  2.0206157135482692e+00  0.0000000000000000e+00  0.0000000000000000e+00  0.0000000000000000e+00  0.0000000000000000e+00  0.0000000000000000e+00  0.0000000000000000e+00  0.0000000000000000e+00  0.0000000000000000e+00  0.0000000000000000e+00  2.0213681208465082e+00  2.0213703875264435e+00  2.0213722673936321e+00  2.0213832819579096e+00  2.0213874879791618e+00  2.0975525573059550e+00  2.0975313955984762e+00  2.0975263221669742e+00  2.0975179679610174e+00  2.0974900793152003e+00  0.0000000000000000e+00  0.0000000000000000e+00  0.0000000000000000e+00  0.0000000000000000e+00  0.0000000000000000e+00  0.0000000000000000e+00  0.0000000000000000e+00  0.0000000000000000e+00  0.0000000000000000e+00  2.0981332386132494e+00  2.0981018267054119e+00  2.0981032549066407e+00  2.0981087979476838e+00  2.0981036843117966e+00  2.1743768880478953e+00  2.1744160883488441e+00  2.1744255930913550e+00  2.1743725893021066e+00  2.1743621747500486e+00  0.0000000000000000e+00  0.0000000000000000e+00  0.0000000000000000e+00  0.0000000000000000e+00  0.0000000000000000e+00  0.0000000000000000e+00  0.0000000000000000e+00  0.0000000000000000e+00  0.0000000000000000e+00  2.1747833974354367e+00  2.1748155781391230e+00  2.1748220505014584e+00  2.1747699015739341e+00  2.1747622281655148e+00  2.2514223739073551e+00  2.2514793530184529e+00  2.2513401001428370e+00  2.2513834013961200e+00  2.2515565279800569e+00  0.0000000000000000e+00  0.0000000000000000e+00  0.0000000000000000e+00  0.0000000000000000e+00  0.0000000000000000e+00  0.0000000000000000e+00  0.0000000000000000e+00  0.0000000000000000e+00  0.0000000000000000e+00  2.2516389241652521e+00  2.2516837654171562e+00  2.2515428360754868e+00  2.2515823546493245e+00  2.2517480482227659e+00  2.3306135958449530e+00  2.3279459456967948e+00  2.3279726157107912e+00  2.3280394343849471e+00  2.3264557308556748e+00  0.0000000000000000e+00  0.0000000000000000e+00  0.0000000000000000e+00  0.0000000000000000e+00  0.0000000000000000e+00  0.0000000000000000e+00  0.0000000000000000e+00  0.0000000000000000e+00  0.0000000000000000e+00  2.3305640606098832e+00  2.3279495308352294e+00  2.3279744200203063e+00  2.3280386830984590e+00  2.3264832573022418e+00  </DataArray> 
</PointData> 
</Piece>
</UnstructuredGrid>
</VTKFile>