<?xml version="1.0"?>
<VTKFile type="UnstructuredGrid"  version="0.1"  >
<UnstructuredGrid>
<Piece  NumberOfPoints="589" NumberOfCells="1080">
<Points>
<DataArray  type="Float64"  NumberOfComponents="3"  format="ascii">-9 0 0  -8 0 0  -7 0 0  -6 0 0  -5 0 0  -4 0 0  -3 0 0  -2 0 0  -1 0 0  0 0 0  1 0 0  2 0 0  3 0 0  4 0 0  5 0 0  6 0 0  7 0 0  8 0 0  9 0 0  -9 2 0  -7.999996967175141 2.000003981201922 0  -6.999993707600605 2.000007488743267 0  -5.999989654453332 2.000010139389072 0  -4.999983481845727 2.000011767733604 0  -3.999989802147554 2.000008713979844 0  -2.999996259989432 2.000005911058854 0  -1.999999455564368 2.000003314775905 0  -1.000000084549042 2.000001239610824 0  9.228367012575448e-07 2.00000025052862 0  1.000002154580514 2.000000666789293 0  2.000002279835062 2.000002299780341 0  3.00000045785844 2.00000422675757 0  3.999996561888952 2.000006010995873 0  4.9999911365836 2.000005846611084 0  5.99999504321972 2.000006101644048 0  6.999997183286006 2.000004902947899 0  7.999998678093632 2.000002706859438 0  9 2 0  -9.000000000004983 4 0  -7.999994841318858 4.000009857132883 0  -6.999990589485761 4.000018405135681 0  -5.999987786737083 4.000024368019483 0  -4.999986359313434 4.000026542996282 0  -3.999995294698022 4.000024896433167 0  -3.000001268435607 4.000017101266928 0  -2.000002860326888 4.000007056698518 0  -1.000000656735662 3.999998931903923 0  3.621611754985868e-06 3.999995447374329 0  1.000008064767164 3.999997385824112 0  2.000010862992835 4.000003225744211 0  3.000010236016935 4.000011055809329 0  4.000005667321421 4.000018482732266 0  4.999998391706465 4.000019460676768 0  5.999997152724769 4.000018018230723 0  6.999996947608289 4.000013795515773 0  7.999998047781259 4.00000745685794 0  9 4 0  -9 6 0  -7.999989087922921 6.000020969986319 0  -6.999981675012286 6.000039662371759 0  -5.999980417732758 6.000053748621824 0  -4.999986042581877 6.000061038122428 0  -4.000003175132838 6.000049265583812 0  -3.000010837175281 6.000025348851707 0  -2.000007424363003 6.000000436630519 0  -0.9999995245913015 5.999986751761286 0  8.231482544975513e-06 5.999983832596543 0  1.000015024696739 5.999987639478345 0  2.000020179675503 5.999998512903721 0  3.000022331973959 6.000016928660834 0  4.000018974467995 6.000035635113704 0  5.000005723520284 6.00004384211053 0  5.999995126732736 6.000041056173861 0  6.999991490688948 6.000031152152594 0  7.99999400917967 6.000016679927058 0  9 6 0  -9 8 0  -7.999969336594996 8.000041195074514 0  -6.999948137319682 8.000079346087361 0  -5.999945519890284 8.000110318075738 0  -4.999969135845331 8.000127305783856 0  -4.000002586339455 8.000074051045639 0  -2.999995090815315 8.000011829394897 0  -1.999981428964393 7.999982301999395 0  -0.9999798827797779 7.999979952459403 0  1.268203498446932e-05 7.999979427327053 0  1.000006810792147 7.999976452643978 0  2.000008528051206 7.999987179916294 0  3.000022017368076 8.000005528048014 0  4.000026640956023 8.000052820793011 0  4.999996293743032 8.000106406202121 0  5.999965256457243 8.000092568770736 0  6.999961414267839 8.000066783303772 0  7.99997608016492 8.000034735034186 0  9 8 0  -9 10 0  -7.999911719235739 10.00007360398886 0  -6.999840262380181 10.00014775762408 0  -5.99980567954621 10.00022284393805 0  -4.99983578641236 10.00029886913447 0  -3.999889631905787 10.00012492530719 0  -2.999878521804547 9.999975951972505 0  -1.999899059326037 10.00000481200693 0  -0.999946088194575 10.00001414034574 0  2.01898799202485e-05 10.00001641152597 0  0.9999873084178075 10.00001592680017 0  1.999944221055567 10.00001560476317 0  2.999905397209188 9.999964927776579 0  3.999909505910932 10.00009021134572 0  4.999854429774843 10.00025609660457 0  5.999826588652316 10.00019188626302 0  6.99985729500923 10.00012747263221 0  7.999921128771228 10.00006354151463 0  9 10 0  -9 12 0  -7.999786761391435 12.00010383085056 0  -6.999584818264564 12.00021246647704 0  -5.999406939081044 12.00033166331795 0  -4.999268849089297 12.0004694843832 0  -3.999296828899912 12.00014908632918 0  -2.999269538339359 11.99983145779698 0  -1.999475775685216 11.99987373270349 0  -0.9997094316749601 11.99989869901002 0  4.550254358787525e-05 11.99990735446546 0  0.9997958501827598 11.99989935136155 0  1.999546787250375 11.99987138663097 0  2.999308196366161 11.99981487661154 0  3.999331219338426 12.00011462409197 0  4.99931714101478 12.00041651285942 0  5.99945364978253 12.0002920451791 0  6.999620626153741 12.00018624919413 0  7.999806003502764 12.00009080019166 0  9 12 0  -9 14 0  -7.999616527668821 14.00011485762049 0  -6.999232967945033 14.00023496341994 0  -5.998848784561825 14.00036603386082 0  -4.998462128833652 14.00051470100479 0  -3.998458627714863 14.00013553364562 0  -2.998454167027631 13.99975134143705 0  -1.99894299460071 13.99981192215798 0  -0.999427225740017 13.99984853163508 0  8.915755642140797e-05 13.99986495785981 0  0.9996021326593266 13.99986265214859 0  1.999107674761898 13.99984139103772 0  2.998602230088034 13.99979991963841 0  3.998596470134648 14.00012451511133 0  4.998596774274698 14.00044664625806 0  5.998958664601197 14.00031757420847 0  6.999310251750235 14.0002036713154 0  7.999656339252518 14.00009948162481 0  9 14 0  -9 16 0  -7.999446513597706 16.00010490458178 0  -6.998883398745837 16.00021362881825 0  -5.99830017671183 16.0003300578422 0  -4.997684537428793 16.00045812972709 0  -3.997663637302978 16.00012710307133 0  -2.997681682847077 15.99979756587814 0  -1.998428923277392 15.99984609337896 0  -0.9991476331788836 15.99987917434629 0  0.0001464238410061079 15.99989755712149 0  0.9994382563502245 15.99990183982566 0  1.998712768318191 15.99989230037735 0  2.997953823755207 15.99986897073157 0  3.997931186281136 16.00013140865225 0  4.997951628787856 16.00039385502893 0  5.998504597783705 16.00028246302086 0  6.999021700341931 16.00018226601359 0  7.999516279321536 16.0000893437895 0  9 16 0  -9 18 0  -7.999314874867178 18.0000796764247 0  -6.998614011582475 18.00016148831872 0  -5.997880843715399 18.00024753119998 0  -4.997097113559211 18.00033979620662 0  -3.99706520849812 18.00012316239019 0  -2.997094094028045 17.99990658450333 0  -1.998029378756879 17.99994212722966 0  -0.9989193100762374 17.99996868903891 0  0.0002125559260059764 17.99998663413934 0  0.9993437949054002 17.99999639080628 0  1.998452008290791 17.99999844085997 0  2.997513746425604 17.99999336464851 0  3.997482369020576 18.00013667207432 0  4.997512961131284 18.0002792369336 0  5.998193666192725 18.00020259405446 0  6.998823039307797 18.00013177494179 0  7.999419539152397 18.00006489654557 0  9 18 0  -9 20 0  -7.99924605950238 20.00004590408023 0  -6.998473590206857 20.00009242637172 0  -5.997663347887935 20.00014012147566 0  -4.996794648731482 20.00018941023573 0  -3.99675805564074 20.00012103483762 0  -2.996792337147298 20.00005267093774 0  -1.997811692233225 20.00007414054187 0  -0.9987783975648993 20.00009272735947 0  0.000281167471297186 20.00010852092483 0  0.9993415946233477 20.00012182155321 0  1.998377522344718 20.00013313462754 0  2.997362712204732 20.00014318838522 0  3.997328346208224 20.00013917949859 0  4.997362925908591 20.00013453874806 0  5.998087726257776 20.00009943587489 0  6.998755667986211 20.00006552398512 0  7.999386852016215 20.00003251929869 0  8.999999999967015 19.9999999999985 0  -9 22 0  -7.999251241438881 22.00000965571304 0  -6.998484012688915 22.0000186710147 0  -5.997679267392692 22.00002633486 0  -4.996816804016281 22.00003179325833 0  -3.996780861451394 22.00012076932259 0  -2.996815007653041 22.00020970444168 0  -1.997805042944697 22.00021770302517 0  -0.9987427783927988 22.00022795781427 0  0.000346317668668773 22.00024039786723 0  0.9994375769425435 22.00025521857345 0  1.998506392776366 22.00027287731829 0  2.997527483437469 22.00029409901334 0  3.997495156402714 22.0001397443522 0  4.997528570840569 21.9999848448764 0  5.998208896893394 21.99999151415678 0  6.998835135605634 21.99999564360672 0  7.999426220554294 21.99999819799335 0  9 22 0  -9 24 0  -7.999330187302692 23.99997596777569 0  -6.998644253837489 23.99995031895855 0  -5.997925649335851 23.99992136533344 0  -4.99715695779917 23.99988727686156 0  -3.997125844243426 24.0001218462864 0  -2.997155602047094 24.00035628751619 0  -1.998008007349444 24.0003522239357 0  -0.9988146782627393 24.00035443067378 0  0.000402820575523156 24.00036273471895 0  0.9996235369912194 24.00037724387542 0  1.998826588776005 24.0003983451037 0  2.997990620679701 24.00042670708632 0  3.997964204566084 24.00013861762199 0  4.997992323369367 23.99985002787205 0  5.998546098303805 23.99989375379461 0  6.999055029440847 23.99993206496674 0  7.999534725055278 23.99996688670712 0  9 24 0  -9 26 0  -7.999473489121411 25.99994874708391 0  -6.998934924219201 25.99989518418138 0  -5.998371969426946 25.99983693050389 0  -4.997771707482836 25.99977146551305 0  -3.997748527248345 26.00012379355787 0  -2.997770677664672 26.00047592721139 0  -1.998394305044144 26.00046162925718 0  -0.9989834330890591 26.00045647691867 0  0.0004464715146811343 26.00046021233794 0  0.99988036898761 26.00047286003459 0  1.999303295019669 26.00049472600621 0  2.998700007261033 26.00052639956049 0  3.998682305455176 26.0001361405191 0  4.998702145622563 25.99974545022593 0  5.999062345383785 25.99981765862697 0  6.999391663957609 25.99988244929459 0  7.999700813121614 25.99994241332693 0  9 26 0  -9 28 0  -7.999664862856491 27.99993076762161 0  -6.999322888708703 27.99985881100077 0  -5.998967103038965 27.99978133628296 0  -4.998590230203636 27.999695411483 0  -3.998577009165266 28.00012622064744 0  -2.998589359519427 28.00055678267414 0  -1.998918978193052 28.0005344148904 0  -0.999228487100617 28.0005229332243 0  0.0004741721038294781 28.00052200077538 0  1.000181300701791 28.0005315598345 0  1.999885277554777 28.0005518315882 0  2.999578395443233 28.00058331638289 0  3.999571173588651 28.00013272036738 0  4.999580839004016 27.99968177029456 0  5.999701763158539 27.99977124389194 0  6.999808750634156 27.9998521479
[...]
<PointData  Scalars="f_44-1"> 
<DataArray  type="Float64"  Name="f_44-1"  format="ascii">-1.0572694939643174e-03  -1.1562658634899328e-04  -4.0805167979876001e-05  -1.3814603620107994e-04  1.5018216623218451e-03  0.0000000000000000e+00  0.0000000000000000e+00  0.0000000000000000e+00  0.0000000000000000e+00  0.0000000000000000e+00  0.0000000000000000e+00  0.0000000000000000e+00  0.0000000000000000e+00  0.0000000000000000e+00  -1.0861111121294646e-03  -8.6446394576289481e-05  -1.3560377881313979e-05  -1.2866838647803273e-04  1.5421375839383461e-03  -3.5808440898969132e-02  -3.5830844522900251e-02  -3.5775720992658057e-02  -3.5657708268930333e-02  -3.5519104787095274e-02  0.0000000000000000e+00  0.0000000000000000e+00  0.0000000000000000e+00  0.0000000000000000e+00  0.0000000000000000e+00  0.0000000000000000e+00  0.0000000000000000e+00  0.0000000000000000e+00  0.0000000000000000e+00  -3.6456331679166884e-02  -3.6500302340994037e-02  -3.6455865503568254e-02  -3.6315651690563840e-02  -3.6157791303610611e-02  -7.1615004679615971e-02  -7.1627081567696829e-02  -7.1626789366763782e-02  -7.1609485281282817e-02  -7.1596432443649979e-02  0.0000000000000000e+00  0.0000000000000000e+00  0.0000000000000000e+00  0.0000000000000000e+00  0.0000000000000000e+00  0.0000000000000000e+00  0.0000000000000000e+00  0.0000000000000000e+00  0.0000000000000000e+00  -7.2897302337825931e-02  -7.2874891234004688e-02  -7.2845042599198176e-02  -7.2835550082179845e-02  -7.2845703266925521e-02  -1.0740723890660960e-01  -1.0739016630281528e-01  -1.0735232682840679e-01  -1.0730934501398891e-01  -1.0726831616992610e-01  0.0000000000000000e+00  0.0000000000000000e+00  0.0000000000000000e+00  0.0000000000000000e+00  0.0000000000000000e+00  0.0000000000000000e+00  0.0000000000000000e+00  0.0000000000000000e+00  0.0000000000000000e+00  -1.0929849960265452e-01  -1.0927734025594241e-01  -1.0927218282056028e-01  -1.0926957592605287e-01  -1.0927155705856474e-01  -1.4327131325940987e-01  -1.4326657521682862e-01  -1.4326444596479351e-01  -1.4324971509190679e-01  -1.4323846963636319e-01  0.0000000000000000e+00  0.0000000000000000e+00  0.0000000000000000e+00  0.0000000000000000e+00  0.0000000000000000e+00  0.0000000000000000e+00  0.0000000000000000e+00  0.0000000000000000e+00  0.0000000000000000e+00  -1.4574738834749201e-01  -1.4570999550405214e-01  -1.4568275308204109e-01  -1.4567385545000050e-01  -1.4566647716146788e-01  -1.7915934583525553e-01  -1.7915579047621977e-01  -1.7915817296930617e-01  -1.7916652974100167e-01  -1.7927494059632149e-01  0.0000000000000000e+00  -5.2256904752575062e-01  -5.2255584501222352e-01  -5.2285881339878326e-01  -5.2296425999036666e-01  -5.2286040222255881e-01  -5.2249961218539343e-01  -5.2169120361411492e-01  0.0000000000000000e+00  -1.8207400106460636e-01  -1.8202612565028889e-01  -1.8203294649218632e-01  -1.8204777803643293e-01  -1.8204489754961634e-01  -2.1504982849475704e-01  -2.1503570354057153e-01  -2.1500376167400001e-01  -2.1494534408845536e-01  -2.1491217619743569e-01  0.0000000000000000e+00  -5.2293096562645247e-01  -5.2319663827720231e-01  -5.2333776747363414e-01  -5.2334438063633892e-01  -5.2326907132368639e-01  -5.2313157132572619e-01  -5.2304372447258196e-01  0.0000000000000000e+00  -2.1824952064340075e-01  -2.1826907235556367e-01  -2.1837844544248677e-01  -2.1844401594460217e-01  -2.1845785153163250e-01  -2.5098854138340759e-01  -2.5096244694340930e-01  -2.5090348688508868e-01  -2.5080913829058160e-01  -2.5076651673730976e-01  0.0000000000000000e+00  -5.2412851876753053e-01  -5.2415318463162430e-01  -5.2415053643205278e-01  -5.2412965959484359e-01  -5.2406870416766116e-01  -5.2395784985842142e-01  -5.2381812260615190e-01  0.0000000000000000e+00  -2.5462439165825751e-01  -2.5472175022593080e-01  -2.5486704062446214e-01  -2.5495140934558003e-01  -2.5498163772053756e-01  -2.8700298380185024e-01  -2.8696988108564703e-01  -2.8690880277027336e-01  -2.8682485571627109e-01  -2.8679173505828304e-01  0.0000000000000000e+00  -5.2503821883453827e-01  -5.2511744457951082e-01  -5.2514526066054357e-01  -5.2512536975458479e-01  -5.2505734028346374e-01  -5.2493895596794204e-01  -5.2477272722759338e-01  0.0000000000000000e+00  -2.9136015565371687e-01  -2.9141751243225772e-01  -2.9153241301916422e-01  -2.9160532385327470e-01  -2.9163811381983240e-01  -3.2306449010869620e-01  -3.2303120300968474e-01  -3.2299260598562113e-01  -3.2296001037460170e-01  -3.2297839041923132e-01  0.0000000000000000e+00  -5.2619272262247607e-01  -5.2628504379196328e-01  -5.2632392677287809e-01  -5.2631031087741886e-01  -5.2624471369431358e-01  -5.2612467188818879e-01  -5.2595704396947074e-01  0.0000000000000000e+00  -3.2831775140035230e-01  -3.2828383421804086e-01  -3.2831673551285273e-01  -3.2834677193386830e-01  -3.2837648614913728e-01  -3.5909383262160721e-01  -3.5906628137550173e-01  -3.5906553089374632e-01  -3.5910585645749510e-01  -3.5919184126938192e-01  0.0000000000000000e+00  -5.2757141787102191e-01  -5.2767441534321180e-01  -5.2772152689835472e-01  -5.2771225276805789e-01  -5.2764972043506408e-01  -5.2753188653436645e-01  -5.2735932692188725e-01  0.0000000000000000e+00  -3.6527603699490419e-01  -3.6514389984199891e-01  -3.6507822347102853e-01  -3.6505376943521139e-01  -3.6507607144591492e-01  -3.9498628810467151e-01  -3.9496864318233965e-01  -3.9501099526561206e-01  -3.9512740394738322e-01  -3.9527778081019277e-01  0.0000000000000000e+00  -5.2919811992846133e-01  -5.2929723830215836e-01  -5.2934418999191668e-01  -5.2933736838307877e-01  -5.2927987721189995e-01  -5.2916998160389273e-01  -5.2900511241685377e-01  0.0000000000000000e+00  -4.0204357680320668e-01  -4.0182002021256419e-01  -4.0165627649577212e-01  -4.0157660221644403e-01  -4.0158759281614631e-01  -4.3063812462627504e-01  -4.3063271021974903e-01  -4.3071511158044795e-01  -4.3089677738097670e-01  -4.3109573014972297e-01  0.0000000000000000e+00  -5.3106636837882648e-01  -5.3114603918664205e-01  -5.3118271620271140e-01  -5.3117414259855389e-01  -5.3112305657124581e-01  -5.3102865102594454e-01  -5.3088554063902904e-01  0.0000000000000000e+00  -4.3844115481659629e-01  -4.3814699875658564e-01  -4.3789997254282409e-01  -4.3777202927126857e-01  -4.3776926090768697e-01  -4.6596750362380290e-01  -4.6597481505069183e-01  -4.6608799650240013e-01  -4.6631426350750782e-01  -4.6653798045174144e-01  0.0000000000000000e+00  -5.3313625468879056e-01  -5.3318282786917748e-01  -5.3320049180322726e-01  -5.3318682802243311e-01  -5.3314375018860849e-01  -5.3307147156248125e-01  -5.3296241733192440e-01  0.0000000000000000e+00  -4.7433009797001635e-01  -4.7399468110386694e-01  -4.7368932205579589e-01  -4.7352592207763278e-01  -4.7350897313387452e-01  -5.0092843685146438e-01  -5.0094747531994521e-01  -5.0107809710498619e-01  -5.0132238184266786e-01  -5.0154322511497429e-01  0.0000000000000000e+00  -5.3534415649508893e-01  -5.3534818775912885e-01  -5.3534081829257518e-01  -5.3531965346132726e-01  -5.3528555788360821e-01  -5.3523980928906612e-01  -5.3517353520108235e-01  0.0000000000000000e+00  -5.0962634498119075e-01  -5.0928314162410715e-01  -5.0895056563231833e-01  -5.0876831318663995e-01  -5.0873862502876921e-01  -5.3551924777384297e-01  -5.3554741076449464e-01  -5.3567993070083464e-01  -5.3591335382843364e-01  -5.3610370235718774e-01  0.0000000000000000e+00  -5.3761163695575986e-01  -5.3756904440487863e-01  -5.3753395559755246e-01  -5.3750402416939391e-01  -5.3747904626788845e-01  -5.3746126596186827e-01  -5.3744145791785236e-01  0.0000000000000000e+00  -5.4430778439711169e-01  -5.4399057344992130e-01  -5.4366434450611256e-01  -5.4348161448178944e-01  -5.4344210569892792e-01  -5.6978222656144129e-01  -5.6981644308523982e-01  -5.6993527044668713e-01  -5.7013032500185612e-01  -5.7026606296449645e-01  0.0000000000000000e+00  -5.3985649997581087e-01  -5.3976877338430806e-01  -5.3970664314308636e-01  -5.3966780222940081e-01  -5.3965108469090406e-01  -5.3965950491647541e-01  -5.3968442977743591e-01  0.0000000000000000e+00  -5.7841569845539731e-01  -5.7815487019521072e-01  -5.7786742221954290e-01  -5.7770247238190153e-01  -5.7765709650165842e-01  -6.0380307766620500e-01  -6.0383836727918272e-01  -6.0392945337552595e-01  -6.0406320933302626e-01  -6.0412642002703154e-01  0.0000000000000000e+00  -5.4200309817649706e-01  -5.4187672296579026e-01  -5.4179113392303613e-01  -5.4174413563668822e-01  -5.4173382233030343e-01  -5.4176373010522116e-01  -5.4182661408033383e-01  0.0000000000000000e+00  -6.1204894334924809e-01  -6.1186876345503116e-01  -6.1164857170177023e-01  -6.1151759160394115e-01  -6.1147085483378294e-01  -6.3769385141676604e-01  -6.3772887532726963e-01  -6.3778211501204074e-01  -6.3783691921480101e-01  -6.3781712050195871e-01  0.0000000000000000e+00  -5.4399040796647502e-01  -5.4383566280203022e-01  -5.4373223641509261e-01  -5.4367841693988894e-01  -5.4367180179085295e-01  -5.4371613333130275e-01  -5.4380618447157825e-01  0.0000000000000000e+00  -6.4535331852887368e-01  -6.4527073578327476e-01  -6.4513843860421660e-01  -6.4505406514695873e-01  -6.4501062044206225e-01  -6.7159569256155482e-01  -6.7162043802721261e-01  -6.7162546415648161e-01  -6.7159593234808035e-01  -6.7149578973735313e-01  0.0000000000000000e+00  -5.4577723851042648e-01  -5.4560639911206699e-01  -5.4549178065070802e-01  -5.4543273817619642e-01  -5.4542655281576813e-01  -5.4547680818676703e-01  -5.4558064431751585e-01  0.0000000000000000e+00  -6.7851187928065015e-01  -6.7852689686944823e-01  -6.7849547671409827e-01  -6.7846609760890864e-01  -6.7843022289524568e-01  -7.0562738492213728e-01  -7.0564790303263347e-01  -7.0561472523543400e-01  -7.0550663905564737e-01  -7.0533184856885511e-01  0.0000000000000000e+00  -5.4734394886125892e-01  -5.4716962869748587e-01  -5.4705033098802669e-01  -5.4698720477114360e-01  -5.4697768715992956e-01  -5.4702500462387005e-01  -5.4712862643077487e-01  0.0000000000000000e+00  -7.1169080926507911e-01  -7.1181871026661603e-01  -7.1189137889946330e-01  -7.1191776874181811e-01  -7.1189268867216970e-01  -7.3993515157533141e-01  -7.3994662213135842e-01  -7.3986279743657846e-01  -7.3967076618547623e-01  -7.3943560700156508e-01  0.0000000000000000e+00  -5.4869198283910359e-01  -5.4852468275776678e-01  -5.4840493638492116e-01  -5.4833920017338067e-01  -5.4832484542221094e-01  -5.4836244295118741e-01  -5.4845348965811114e-01  0.0000000000000000e+00  -7.4514755477829420e-01  -7.4532798601993566e-01  -7.4548564337924328e-01  -7.4556572145257360e-01  -7.4555402873027399e-01  -7.7459513767049915e-01  -7.7457548438825463e-01  -7.7446018181953302e-01  -7.7424961143067994e-01  -7.7401071896799167e-01  0.0000000000000000e+00  -5.4984666689845296e-01  -5.4968137606315493e-01  -5.4956367658788385e-01  -5.4949569346697735e-01  -5.4947513756048838e-01  -5.4950170899806028e-01  -5.4957942349247302e-01  0.0000000000000000e+00  -7.7887593862442450e-01  -7.7916880491080531e-01  -7.7942035561364342e-01  -7.7954342376056807e-01  -7.7954513250213120e-01  -8.0959841494057194e-01  -8.0962013942262090e-01  -8.0951197813845233e-01  -8.0926921070262436e-01  -8.0898795829176995e-01  0.0000000000000000e+00  -5.5078941624930000e-01  -5.5065016977828740e-01  -5.5053956392108816e-01  -5.5047838522529091e-01  -5.5045702863035784e-01  -5.5045399060285582e-01  -5.5047781799335205e-01  0.0000000000000000e+00  -8.1323754948491467e-01  -8.1353174721389643e-01  -8.1379988156848648e-01  -8.1395180079335938e-01  -8.1396811677939829e-01  -8.4523732049160460e-01  -8.4516394485292878e-01  -8.4498385632727913e-01  -8.4469042311121312e-01  -8.4437197440154910e-01  0.0000000000000000e+00  -5.5156150134820026e-01  -5.5147183038831404e-01  -5.5133453656616105e-01  -5.5125907115465689e-01  -5.5126535396528376e-01  -5.5140523146180875e-01  -5.5166917861547227e-01  0.0000000000000000e+00  -8.4815415334664834e-01  -8.4840833712272612e-01  -8.4868884509158349e-01  -8.4881871601640191e-01  -8.4882945759800454e-01  -8.8078479322238956e-01  -8.8082120355683891e-01  -8.8075588731471788e-01  -8.8063455008041192e-01  -8.8044657496205636e-01  0.0000000000000000e+00  -5.5290115254816152e-01  -5.5210192648876544e-01  -5.5174311573511359e-01  -5.5163887257173438e-01  -5.5174349714675364e-01  -5.5204314270587218e-01  -5.5202957423457555e-01  0.0000000000000000e+00  -8.8330004519328864e-01  -8.8367852111699863e-01  -8.8393114633953374e-01  -8.8410294899869568e-01  -8.8415397302000565e-01  -9.1743890648600102e-01  -9.1738812188750385e-01  -9.1728535548959445e-01  -9.1708556861766433e-01  -9.1694999490126605e-01  0.0000000000000000e+00  0.0000000000000000e+00  0.0000000000000000e+00  0.0000000000000000e+00  0.0000000000000000e+00  0.0000000000000000e+00  0.0000000000000000e+00  0.0000000000000000e+00  0.0000000000000000e+00  -9.1993082831067396e-01  -9.1991403429167129e-01  -9.1992395999990606e-01  -9.1986296125909761e-01  -9.1982663514876994e-01  -9.5319105045115282e-01  -9.5316515868566087e-01  -9.5314336893190010e-01  -9.5322172667256944e-01  -9.5319123657787408e-01  0.0000000000000000e+00  0.0000000000000000e+00  0.0000000000000000e+00  0.0000000000000000e+00  0.0000000000000000e+00  0.0000000000000000e+00  0.0000000000000000e+00  0.0000000000000000e+00  0.0000000000000000e+00  -9.5521161504330643e-01  -9.5518090048549542e-01  -9.5519286392238933e-01  -9.5531535470121576e-01  -9.5533497232812725e-01  -9.9023533119238971e-01  -9.9030729661434669e-01  -9.9029784028665202e-01  -9.9007345802776148e-01  -9.9009661565812257e-01  0.0000000000000000e+00  0.0000000000000000e+00  0.0000000000000000e+00  0.0000000000000000e+00  0.0000000000000000e+00  0.0000000000000000e+00  0.0000000000000000e+00  0.0000000000000000e+00  0.0000000000000000e+00  -9.9164981363845672e-01  -9.9169772237183618e-01  -9.9168154399226505e-01  -9.9145972615110278e-01  -9.9148833897857080e-01  -1.0269503661447199e+00  -1.0265106634183221e+00  -1.0260318854288679e+00  -1.0259416295052064e+00  -1.0258208712495649e+00  0.0000000000000000e+00  0.0000000000000000e+00  0.0000000000000000e+00  0.0000000000000000e+00  0.0000000000000000e+00  0.0000000000000000e+00  0.0000000000000000e+00  0.0000000000000000e+00  0.0000000000000000e+00  -1.0276363756015161e+00  -1.0271958853808265e+00  -1.0267265517056618e+00  -1.0266415369612225e+00  -1.0265245042795537e+00  -1.0639984593165921e+00  -1.0619778093018803e+00  -1.0625726756925749e+00  -1.0625245461153445e+00  -1.0610554680669941e+00  0.0000000000000000e+00  0.0000000000000000e+00  0.0000000000000000e+00  0.0000000000000000e+00  0.0000000000000000e+00  0.0000000000000000e+00  0.0000000000000000e+00  0.0000000000000000e+00  0.0000000000000000e+00  -1.0639180203813841e+00  -1.0619856078847165e+00  -1.0625757369748043e+00  -1.0625253402134744e+00  -1.0610972114829758e+00  </DataArray> 
</PointData> 
</Piece>
</UnstructuredGrid>
</VTKFile>