<?xml version="1.0"?>
<VTKFile type="UnstructuredGrid"  version="0.1"  >
<UnstructuredGrid>
<Piece  NumberOfPoints="589" NumberOfCells="1080">
<Points>
<DataArray  type="Float64"  NumberOfComponents="3"  format="ascii">-9 0 0  -8 0 0  -7 0 0  -6 0 0  -5 0 0  -4 0 0  -3 0 0  -2 0 0  -1 0 0  0 0 0  1 0 0  2 0 0  3 0 0  4 0 0  5 0 0  6 0 0  7 0 0  8 0 0  9 0 0  -9 2 0  -7.999995536843829 2.000006053336903 0  -6.999990700424802 2.000011386431823 0  -5.999984594501913 2.000015416410911 0  -4.999975152591498 2.000017892711659 0  -3.999984746602095 2.000013278404097 0  -2.999994602675557 2.000009037103574 0  -1.999999499746899 2.000005109445396 0  -1.000000499077293 2.00000198338497 0  9.682573055810398e-07 2.000000535219118 0  1.000002718285313 2.000001272007427 0  2.000002670628533 2.000003929421183 0  2.99999947762596 2.000007118657334 0  3.999992849613652 2.000010266372581 0  4.9999834945958 2.000010690261582 0  5.999990414960754 2.000010702130513 0  6.999994430820387 2.000008434657828 0  7.999997365795268 2.000004613957245 0  9 2 0  -9.000000000009988 4 0  -7.99999256667528 4.000014987844455 0  -6.999986478856824 4.000027985481976 0  -5.999982532926111 4.00003704761883 0  -4.999980596951804 4.000040329362031 0  -3.999994256518563 4.00003799975888 0  -3.000003447204316 4.000026226763419 0  -2.00000597916123 4.000010993945337 0  -1.000002739127634 3.999998700338339 0  3.656042167048381e-06 3.999993537050246 0  1.000010263357816 3.999996791811411 0  2.000014255695716 4.000006189374255 0  3.000012836566651 4.000018839998455 0  4.000005185957174 4.000031116171443 0  4.999993298986131 4.000033741739787 0  5.999992447935232 4.000030521709514 0  6.999993185164808 4.000023082377141 0  7.999995934626283 4.000012401101382 0  9 4 0  -9 6 0  -7.999984214161969 6.000031884130326 0  -6.99997368970223 6.00006032740604 0  -5.999972431551075 6.000081801221387 0  -4.999981558310133 6.000092957967365 0  -4.000007811147127 6.000075333668422 0  -3.000019693267008 6.000039139701067 0  -2.000014809708242 6.000001343314841 0  -1.000003018225025 5.999980478007295 0  8.690682130038879e-06 5.999976105754662 0  1.000019026602657 5.999982251670028 0  2.000026840542627 5.999999583088052 0  3.000029897576767 6.000028886619853 0  4.000024268497454 6.000058878431489 0  5.000003196461327 6.000072670070452 0  5.999988127737902 6.000067219205984 0  6.999983890370493 6.000050698649559 0  7.999989239517811 6.00002706827228 0  9 6 0  -9 8 0  -7.99995481342078 8.000062548164145 0  -6.999923833680032 8.000120551779625 0  -5.99992078972241 8.000167827557464 0  -4.999957309209597 8.000194182443636 0  -4.00000824732887 8.000113879623143 0  -2.999997757781523 8.000019805239868 0  -1.999977739641284 7.999974678060777 0  -0.9999757495825972 7.999970454483763 0  1.285553283497984e-05 7.999969377906787 0  1.000003999031528 7.999964882179395 0  2.00000682526793 7.999982162411595 0  3.000027740011001 8.000011698405489 0  4.000034709005922 8.000086451319868 0  4.999987085349928 8.000170941734883 0  5.999940478971968 8.000148201259385 0  6.999936246111598 8.000106758522454 0  7.999960896257212 8.000055490213139 0  9 8 0  -9 10 0  -7.999868563159881 10.00011140813911 0  -6.999762210225716 10.00022371495939 0  -5.999710872538942 10.00033758269786 0  -4.999756128163818 10.00045314532972 0  -3.999837632956572 10.00019213231516 0  -2.99982246797131 9.99996809790613 0  -1.999854404368107 10.00000950095369 0  -0.9999257142774987 10.00002285930432 0  2.259516448602137e-05 10.00002610881528 0  0.9999718753820783 10.0000255819358 0  1.999905107232653 10.00002583493734 0  2.999845346749312 9.999948502760569 0  3.999851715825006 10.00014531577689 0  4.999765140719347 10.00040527235123 0  5.999723293628913 10.00030402445281 0  6.999773043517179 10.00020213838595 0  7.999874721742141 10.00010081084639 0  9 10 0  -9 12 0  -7.999681873615211 12.00015671168998 0  -6.999380356759138 12.00032069926272 0  -5.999114256042057 12.00050067126147 0  -4.99890675710147 12.00070880793478 0  -3.998949063829807 12.00023011755823 0  -2.998909660462257 11.99975569334016 0  -1.999229342990024 11.99981665068799 0  -0.9995889540424996 11.99985168819624 0  3.531311217212653e-05 11.99986221795995 0  0.9996537564306927 11.99984754942534 0  1.999274505180126 11.99980245918931 0  2.998913314218685 11.99971357152495 0  3.998949326085307 12.00018423572938 0  4.998925857058206 12.00065834635184 0  5.999139516471922 12.00046247237138 0  6.999402026465847 12.00029532832179 0  7.999694085876278 12.00014409193643 0  9 12 0  -9 14 0  -7.999428530237263 14.00017295537286 0  -6.998856493407226 14.000353821487 0  -5.998282641844484 14.00055121141128 0  -4.99770371884319 14.00077510926574 0  -3.997698647386088 14.00021145904142 0  -2.997693748670832 13.99964042870878 0  -1.99844497366644 13.99972755933996 0  -0.9991879028158944 13.99977861848532 0  7.133793047048575e-05 13.99979918193076 0  0.9993266737830059 13.9997912766849 0  1.998572184714694 13.99975437523318 0  2.997802850439125 13.99968637070205 0  3.997794435342853 14.00020041320403 0  4.997793102835614 14.00071080628323 0  5.998359892367152 14.00050614487663 0  6.998912553548049 14.00032497303271 0  7.999457871712594 14.00015884146292 0  9 14 0  -9 16 0  -7.999177158552383 16.00015758539668 0  -6.998339401177843 16.00032091009841 0  -5.997470529560956 16.00049581187508 0  -4.996551564239344 16.00068820538795 0  -3.996520238060226 16.00020039904451 0  -2.996549017901886 15.99971498380934 0  -1.997694535975638 15.99978298114616 0  -0.9987958793422301 15.99982771310387 0  0.0001229550717973926 15.99985018224536 0  0.9990391780223272 15.99985114521237 0  1.997929892605315 15.99983085746817 0  2.9967706753751 15.9997891861631 0  3.996736107718209 16.00021194079354 0  4.996766168199274 16.0006348891295 0  5.997636035510596 16.00045595285862 0  6.998452005002688 16.00029452224485 0  7.999234153231541 16.00014446451234 0  9 16 0  -9 18 0  -7.998985134378066 18.00011926588549 0  -6.997946204564642 18.00024172046552 0  -5.996857892665909 18.00037049298342 0  -4.99569231270014 18.00050855427017 0  -3.995644389383423 18.00019603757194 0  -2.995689294450093 17.99988376146728 0  -1.99712174040528 17.9999316467038 0  -0.9984850264446473 17.99996604750304 0  0.000184964196002624 17.99998739226248 0  0.9988540582363676 17.99999619581414 0  1.997488122624515 17.99999304375783 0  2.996051426693194 17.99997866006088 0  3.996003127135933 18.00022096395054 0  4.996049294962636 18.00046228962102 0  5.9971269278716 18.00033579589839 0  6.998126218434639 18.00021861497164 0  7.999075346657214 18.00010772649763 0  9 18 0  -9 20 0  -7.998889074420728 20.00006818628618 0  -6.99774996207735 20.00013726501883 0  -5.996553389175309 20.00020803340331 0  -4.995267892811201 20.00028108659512 0  -3.995212957303902 20.00019436096346 0  -2.99526574646151 20.00010779587977 0  -1.996826629014951 20.00013438327746 0  -0.9983077891370264 20.00015674334414 0  0.00025050955699834 20.0001749018306 0  0.9988094596128015 20.00018919773321 0  1.997330304463377 20.00020027413116 0  2.995772932207449 20.00020910463777 0  3.995719673310752 20.00022570606741 0  4.995772520153412 20.0002414835445 0  5.996930330911899 20.00017840250597 0  6.998000559228338 20.00011754410578 0  7.999014169998396 20.00005833610049 0  8.999999999974587 20.00000000000429 0  -9 22 0  -7.998905493756118 22.0000135301412 0  -6.997782995779459 22.00002604708915 0  -5.996603637064545 22.00003643122768 0  -4.995336788477611 22.00004334741109 0  -3.995282971886643 22.00019536697606 0  -2.995335299775268 22.00034744960042 0  -1.99685144714853 22.00035407224652 0  -0.9982888861387079 22.00036429163821 0  0.0003134294586213946 22.00037790682573 0  0.9989177379814321 22.00039511777399 0  1.997486342427902 22.00041651841751 0  2.995980484476372 22.00044310463369 0  3.995929967086695 22.00022733147271 0  4.995981532965052 22.00001084788141 0  5.997083237042714 22.00001211713592 0  6.998100879490594 22.00000986820097 0  7.9990638872696 22.00000545023256 0  9 22 0  -9 24 0  -7.999033611596438 23.99996292501965 0  -6.998042903716066 23.99992335658479 0  -5.997002900935831 23.99987869320423 0  -4.995887310162234 23.99982611812434 0  -3.99584099392655 24.00019818626294 0  -2.99588643322351 24.0005701732995 0  -1.997192091305917 24.00055933350504 0  -0.9984294626021755 24.00055821719655 0  0.0003683942440763121 24.00056648763406 0  0.9991693276222725 24.00058423359845 0  1.997941258456258 24.00061196732583 0  2.996651346556416 24.00065062807209 0  3.996609544536838 24.00022612211929 0  4.996653399875835 23.99980095984179 0  5.997571587026897 23.99985990493442 0  6.99841926240151 23.99991086861464 0  7.99922096861168 23.99995669207853 0  9 24 0  -9 26 0  -7.999258714800986 25.99992229705749 0  -6.99849939089768 25.99984104716868 0  -5.997703565757726 25.99975259531531 0  -4.996851886391238 25.99965307415398 0  -3.996817807139763 26.0002020478634 0  -2.99685147460606 26.00075083822117 0  -1.997806825678365 26.00072561185034 0  -0.9987113779955824 26.00071450540845 0  0.0004110947964421074 26.0007170734009 0  0.9995374402440051 26.00073330129847 0  1.998644583405765 26.00076360479702 0  2.997708983127958 26.00080883160111 0  3.997680283091112 26.00022253182707 0  4.997711744133602 25.99963567904837 0  5.998341167835532 25.99973962761939 0  6.998921025007429 25.99983243847095 0  7.999468508552343 25.99991800337551 0  9 26 0  -9 28 0  -7.999555633590035 27.9998958612087 0  -6.999101260408175 27.99978754510384 0  -5.998626673831436 27.99967076762 0  -4.998121204975884 27.9995410334473 0  -3.998102434105015 28.00020635223092 0  -2.998120982165708 28.00087141599787 0  -1.99862567296743 28.00083531925156 0  -0.9991018064568813 28.00081600230337 0  0.0004383510262007676 28.00081292220064 0  0.9999828704554368 28.00082596418177 0  1.999519902546505 28.00085544152408 0  2.999037421607786 28.00090209590332 0  3.999024663256426 28.00021717059357 0  4.999040715863332 27.99953181953285 0  5.999308152349207 27.99966391803481 0  6.999551735858816 27.99978300675353 
[...]
<PointData  Scalars="f_44-1"> 
<DataArray  type="Float64"  Name="f_44-1"  format="ascii">-1.4216906111263719e-03  -1.4757655578149481e-04  -5.4022448208157355e-05  -1.4542393107630039e-04  1.8072760672459144e-03  0.0000000000000000e+00  0.0000000000000000e+00  0.0000000000000000e+00  0.0000000000000000e+00  0.0000000000000000e+00  0.0000000000000000e+00  0.0000000000000000e+00  0.0000000000000000e+00  0.0000000000000000e+00  -1.4537917614477493e-03  -1.1804353155943068e-04  -2.6442529170663020e-05  -1.3427810405578638e-04  1.8541714784057934e-03  -5.2341776747949487e-02  -5.2373062156774168e-02  -5.2272958221157080e-02  -5.2090396887997333e-02  -5.1910800297901738e-02  0.0000000000000000e+00  0.0000000000000000e+00  0.0000000000000000e+00  0.0000000000000000e+00  0.0000000000000000e+00  0.0000000000000000e+00  0.0000000000000000e+00  0.0000000000000000e+00  0.0000000000000000e+00  -5.2999421730397074e-02  -5.3049809985784846e-02  -5.2958081125548256e-02  -5.2752382786236514e-02  -5.2553633509919727e-02  -1.0461629113660052e-01  -1.0462340274333361e-01  -1.0460827911413509e-01  -1.0457924590813873e-01  -1.0457206344239517e-01  0.0000000000000000e+00  0.0000000000000000e+00  0.0000000000000000e+00  0.0000000000000000e+00  0.0000000000000000e+00  0.0000000000000000e+00  0.0000000000000000e+00  0.0000000000000000e+00  0.0000000000000000e+00  -1.0590766389489857e-01  -1.0588668829672876e-01  -1.0584686526540198e-01  -1.0582579982617636e-01  -1.0583955385921050e-01  -1.5690200999398513e-01  -1.5688657084108523e-01  -1.5685347011574594e-01  -1.5681601336242493e-01  -1.5677250810802043e-01  0.0000000000000000e+00  0.0000000000000000e+00  0.0000000000000000e+00  0.0000000000000000e+00  0.0000000000000000e+00  0.0000000000000000e+00  0.0000000000000000e+00  0.0000000000000000e+00  0.0000000000000000e+00  -1.5882251718582047e-01  -1.5879438965040124e-01  -1.5878564431468423e-01  -1.5878205048275867e-01  -1.5878358503257803e-01  -2.0926399576841534e-01  -2.0925818929966172e-01  -2.0924752272139496e-01  -2.0921219135406835e-01  -2.0919029622521271e-01  0.0000000000000000e+00  0.0000000000000000e+00  0.0000000000000000e+00  0.0000000000000000e+00  0.0000000000000000e+00  0.0000000000000000e+00  0.0000000000000000e+00  0.0000000000000000e+00  0.0000000000000000e+00  -2.1176490963259251e-01  -2.1173414724795478e-01  -2.1170784580435009e-01  -2.1169824470044146e-01  -2.1169027793165610e-01  -2.6166058013890442e-01  -2.6166006053851110e-01  -2.6166818138596371e-01  -2.6169244260266167e-01  -2.6182941481814942e-01  0.0000000000000000e+00  -7.6835026219877622e-01  -7.6832504885204844e-01  -7.6865509527289322e-01  -7.6876213126796267e-01  -7.6865801949858159e-01  -7.6827722837080559e-01  -7.6732397458877644e-01  0.0000000000000000e+00  -2.6464649731716283e-01  -2.6458164776587823e-01  -2.6457332641318798e-01  -2.6458067449854494e-01  -2.6457494941636989e-01  -3.1404837743632685e-01  -3.1403942294586379e-01  -3.1401784529222232e-01  -3.1397798599401372e-01  -3.1396136628439786e-01  0.0000000000000000e+00  -7.6871313123668161e-01  -7.6899565299855654e-01  -7.6914699851104851e-01  -7.6915328905321134e-01  -7.6907564801320472e-01  -7.6892758332778788e-01  -7.6885695766711315e-01  0.0000000000000000e+00  -3.1733355695245435e-01  -3.1732253960466056e-01  -3.1741649218342272e-01  -3.1747029853727815e-01  -3.1747901962205882e-01  -3.6646295223897429e-01  -3.6644297330750403e-01  -3.6639602169660956e-01  -3.6632203397935448e-01  -3.6630662328192637e-01  0.0000000000000000e+00  -7.6997128772842394e-01  -7.6999752692674583e-01  -7.6999243159174724e-01  -7.6997087325407865e-01  -7.6990691261824962e-01  -7.6979020827074596e-01  -7.6963966453277910e-01  0.0000000000000000e+00  -3.7017560970643376e-01  -3.7024794455151488e-01  -3.7037571107388517e-01  -3.7044947844700543e-01  -3.7047398406604976e-01  -4.1892820958760230e-01  -4.1890091429731663e-01  -4.1885103235186538e-01  -4.1878555104345672e-01  -4.1877848500104159e-01  0.0000000000000000e+00  -7.7090879971291393e-01  -7.7099742568861829e-01  -7.7103018140017587e-01  -7.7101117977537215e-01  -7.7093945389738272e-01  -7.7081275019738560e-01  -7.7063562413405384e-01  0.0000000000000000e+00  -4.2335088913970953e-01  -4.2338686835070677e-01  -4.2348961979093980e-01  -4.2355442417062061e-01  -4.2358228779788420e-01  -4.7141607508466260e-01  -4.7138745751893568e-01  -4.7135820718341848e-01  -4.7134102787877014e-01  -4.7138272929705310e-01  0.0000000000000000e+00  -7.7211784821208829e-01  -7.7222288523891458e-01  -7.7226853064345657e-01  -7.7225653039501729e-01  -7.7218733503792680e-01  -7.7205822763162213e-01  -7.7187677878134398e-01  0.0000000000000000e+00  -4.7673794849604778e-01  -4.7668413820685485e-01  -4.7670646524789528e-01  -4.7673000842254531e-01  -4.7675570307953380e-01  -5.2384987272878236e-01  -5.2382539846884424e-01  -5.2383177512855705e-01  -5.2388409569585748e-01  -5.2398902745158127e-01  0.0000000000000000e+00  -7.7357258808165419e-01  -7.7369122529174916e-01  -7.7374740640113104e-01  -7.7374089285571712e-01  -7.7367489307277915e-01  -7.7354728019209196e-01  -7.7335851463625627e-01  0.0000000000000000e+00  -5.3010715489787164e-01  -5.2995909836505406e-01  -5.2988505295597588e-01  -5.2985580231025975e-01  -5.2987540113394405e-01  -5.7612843796385915e-01  -5.7611205703944179e-01  -5.7615902452240320e-01  -5.7628346905760530e-01  -5.7644664386569044e-01  0.0000000000000000e+00  -7.7530438191861117e-01  -7.7542010319862209e-01  -7.7547707081363693e-01  -7.7547356844071968e-01  -7.7541297696837996e-01  -7.7529359217699956e-01  -7.7511214473541024e-01  0.0000000000000000e+00  -5.8326970001382983e-01  -5.8303569430687985e-01  -5.8286631782362563e-01  -5.8278385367586849e-01  -5.8279387730803267e-01  -6.2815267280031772e-01  -6.2814668957784858e-01  -6.2823094166362048e-01  -6.2841611253158558e-01  -6.2862028211369803e-01  0.0000000000000000e+00  -7.7730808596066592e-01  -7.7740295788617508e-01  -7.7744908844206750e-01  -7.7744383507941228e-01  -7.7739032192982027e-01  -7.7728789508676355e-01  -7.7712999325498977e-01  0.0000000000000000e+00  -6.3604938373585751e-01  -6.3575155547632833e-01  -6.3550220445549177e-01  -6.3537374423143900e-01  -6.3537188224088115e-01  -6.7984657207943944e-01  -6.7985163218219979e-01  -6.7996377157346799e-01  -6.8018861634507100e-01  -6.8040915237084576e-01  0.0000000000000000e+00  -7.7954074778093818e-01  -7.7959884022662429e-01  -7.7962395753498925e-01  -7.7961308306966370e-01  -7.7956855556640914e-01  -7.7949085775248017e-01  -7.7937093838568983e-01  0.0000000000000000e+00  -6.8831228465968630e-01  -6.8798073078655664e-01  -6.8767680459746205e-01  -6.8751528101679482e-01  -6.8750097613032601e-01  -7.3117093661761290e-01  -7.3118636710190654e-01  -7.3131314482033827e-01  -7.3155106925911528e-01  -7.3176033502221993e-01  0.0000000000000000e+00  -7.8193164149434013e-01  -7.8194173226073871e-01  -7.8193868859612659e-01  -7.8191935302340665e-01  -7.8188499641922860e-01  -7.8183727415678317e-01  -7.8176570273320789e-01  0.0000000000000000e+00  -7.3998073409419551e-01  -7.3964887668627610e-01  -7.3932156925916381e-01  -7.3914347322671425e-01  -7.3911782209766563e-01  -7.8213143704662702e-01  -7.8215508645820775e-01  -7.8228133902193642e-01  -7.8250395745453660e-01  -7.8267529916968581e-01  0.0000000000000000e+00  -7.8439218692729562e-01  -7.8434923515303279e-01  -7.8431471195295965e-01  -7.8428538662691349e-01  -7.8426139784041937e-01  -7.8424545468627094e-01  -7.8422674434075657e-01  0.0000000000000000e+00  -7.9103990975966176e-01  -7.9074054647086123e-01  -7.9042300922735298e-01  -7.9024631201488182e-01  -7.9021173733046035e-01  -8.3277743532647452e-01  -8.3280681222274189e-01  -8.3291759660391984e-01  -8.3309844907460151e-01  -8.3320973115523378e-01  0.0000000000000000e+00  -7.8682864057490787e-01  -7.8673415551709425e-01  -7.8666878260689277e-01  -7.8662924867651596e-01  -7.8661464717084406e-01  -7.8662850955603536e-01  -7.8666077911849563e-01  0.0000000000000000e+00  -8.4153841369164306e-01  -8.4129999886193052e-01  -8.4102368728045163e-01  -8.4086595038012546e-01  -8.4082580607352730e-01  -8.8320044625804928e-01  -8.8323107195072681e-01  -8.8331335013445811e-01  -8.8343133750442626e-01  -8.8346753934318323e-01  0.0000000000000000e+00  -7.8915421712454226e-01  -7.8901566851906912e-01  -7.8892352936810262e-01  -7.8887464008695674e-01  -7.8886726762108428e-01  -7.8890545599687134e-01  -7.8898083731676427e-01  0.0000000000000000e+00  -8.9158129752405935e-01  -8.9142526996361116e-01  -8.9121724271552794e-01  -8.9109371657936520e-01  -8.9105185309766544e-01  -9.3351651897818455e-01  -9.3354801358497885e-01  -9.3359298710103855e-01  -9.3363214459471078e-01  -9.3358601463124502e-01  0.0000000000000000e+00  -7.9129886347995360e-01  -7.9112826883196574e-01  -7.9101590896884388e-01  -7.9095926126847393e-01  -7.9095596384261269e-01  -7.9101022739113658e-01  -7.9111604197511298e-01  0.0000000000000000e+00  -9.4131791327732184e-01  -9.4125836107352134e-01  -9.4113746795027065e-01  -9.4105963568332562e-01  -9.4102006507596880e-01  -9.8386803261098965e-01  -9.8389048750251085e-01  -9.8388844902116224e-01  -9.8384568964074970e-01  -9.8372355814737555e-01  0.0000000000000000e+00  -7.9321568196015313e-01  -7.9302750498091490e-01  -7.9290274562590290e-01  -7.9284024563285160e-01  -7.9283722534787127e-01  -7.9289760914854412e-01  -7.9301819279997909e-01  0.0000000000000000e+00  -9.9093340635505867e-01  -9.9096609950621117e-01  -9.9094325073631251e-01  -9.9091854046837313e-01  -9.9088498198713582e-01  -1.0343714182888557e+00  -1.0343909986130855e+00  -1.0343535708039173e+00  -1.0342371832548607e+00  -1.0340480276597590e+00  0.0000000000000000e+00  -7.9488337827880218e-01  -7.9469238479771953e-01  -7.9456289484088827e-01  -7.9449599674988891e-01  -7.9448897100760840e-01  -7.9454516475194192e-01  -7.9466420380077685e-01  0.0000000000000000e+00  -1.0405877421529350e+00  -1.0407264821238176e+00  -1.0408043291228286e+00  -1.0408325605166449e+00  -1.0408078717116505e+00  -1.0851662689422059e+00  -1.0851807290900772e+00  -1.0850969419116965e+00  -1.0849022004295112e+00  -1.0846614294888239e+00  0.0000000000000000e+00  -7.9630543889763183e-01  -7.9612406958197057e-01  -7.9599502246049514e-01  -7.9592543337363375e-01  -7.9591236349448702e-01  -7.9595634339085342e-01  -7.9605963800327550e-01  0.0000000000000000e+00  -1.0905342740734794e+00  -1.0907184618471339e+00  -1.0908754672709309e+00  -1.0909539968942070e+00  -1.0909405250267992e+00  -1.1363314068095551e+00  -1.1363125013314885e+00  -1.1361972685785122e+00  -1.1359868822804968e+00  -1.1357497020875744e+00  0.0000000000000000e+00  -7.9751320222637934e-01  -7.9733694438030778e-01  -7.9721084009690935e-01  -7.9713896068089307e-01  -7.9711894002623340e-01  -7.9714993981921622e-01  -7.9723645072017435e-01  0.0000000000000000e+00  -1.1407673507697891e+00  -1.1410456754292782e+00  -1.1412908819508265e+00  -1.1414095299634530e+00  -1.1414079294953090e+00  -1.1878212516149680e+00  -1.1878506450677739e+00  -1.1877496046401743e+00  -1.1875213039085428e+00  -1.1872585845053667e+00  0.0000000000000000e+00  -7.9849500672274298e-01  -7.9834515344707890e-01  -7.9822864921189141e-01  -7.9816430864857357e-01  -7.9814206063259530e-01  -7.9813624166098873e-01  -7.9816107200240038e-01  0.0000000000000000e+00  -1.1915834124275042e+00  -1.1918812028081445e+00  -1.1921480383656844e+00  -1.1922968388263002e+00  -1.1923087197546229e+00  -1.2399766239284418e+00  -1.2399048015375445e+00  -1.2397282710925071e+00  -1.2394421457231826e+00  -1.2391263510840116e+00  0.0000000000000000e+00  -7.9927499254448464e-01  -7.9920231544378606e-01  -7.9905435468101782e-01  -7.9897635934754108e-01  -7.9898212028954196e-01  -7.9913187590982437e-01  -7.9941258918939906e-01  0.0000000000000000e+00  -1.2430339199805414e+00  -1.2432518334631244e+00  -1.2435170284183130e+00  -1.2436374733667854e+00  -1.2436439493795191e+00  -1.2919956395273855e+00  -1.2920342908204483e+00  -1.2919712827856733e+00  -1.2918464692561209e+00  -1.2916572952224448e+00  0.0000000000000000e+00  -8.0079429113763478e-01  -7.9985093809187402e-01  -7.9947175513370705e-01  -7.9936694407101960e-01  -7.9947317049342759e-01  -7.9979990255903910e-01  -7.9977383802066315e-01  0.0000000000000000e+00  -1.2945405402035635e+00  -1.2949440871256384e+00  -1.2952126969052269e+00  -1.2953940694698505e+00  -1.2954418632604405e+00  -1.3451464605435508e+00  -1.3450987178176117e+00  -1.3449930472394380e+00  -1.3447866943971256e+00  -1.3446582119051731e+00  0.0000000000000000e+00  0.0000000000000000e+00  0.0000000000000000e+00  0.0000000000000000e+00  0.0000000000000000e+00  0.0000000000000000e+00  0.0000000000000000e+00  0.0000000000000000e+00  0.0000000000000000e+00  -1.3476903814673418e+00  -1.3476772345265167e+00  -1.3476915457249736e+00  -1.3476315552430911e+00  -1.3475996624210937e+00  -1.3974264584245333e+00  -1.3974039970698493e+00  -1.3973878921974427e+00  -1.3974697195142645e+00  -1.3974320182717330e+00  0.0000000000000000e+00  0.0000000000000000e+00  0.0000000000000000e+00  0.0000000000000000e+00  0.0000000000000000e+00  0.0000000000000000e+00  0.0000000000000000e+00  0.0000000000000000e+00  0.0000000000000000e+00  -1.3995034158010806e+00  -1.3994717436790738e+00  -1.3994915815567128e+00  -1.3996213668068507e+00  -1.3996367730213664e+00  -1.4509324691453609e+00  -1.4509866126208870e+00  -1.4509636792723222e+00  -1.4507321791350007e+00  -1.4507386969936835e+00  0.0000000000000000e+00  0.0000000000000000e+00  0.0000000000000000e+00  0.0000000000000000e+00  0.0000000000000000e+00  0.0000000000000000e+00  0.0000000000000000e+00  0.0000000000000000e+00  0.0000000000000000e+00  -1.4523865812836707e+00  -1.4524170396501632e+00  -1.4523878196844251e+00  -1.4521596949541191e+00  -1.4521724636955042e+00  -1.5040864221122843e+00  -1.5037488053385062e+00  -1.5033547587571061e+00  -1.5033313923686142e+00  -1.5033334476192322e+00  0.0000000000000000e+00  0.0000000000000000e+00  0.0000000000000000e+00  0.0000000000000000e+00  0.0000000000000000e+00  0.0000000000000000e+00  0.0000000000000000e+00  0.0000000000000000e+00  0.0000000000000000e+00  -1.5048030757490609e+00  -1.5044585109738293e+00  -1.5040700584992139e+00  -1.5040483314212332e+00  -1.5040502589611049e+00  -1.5584744421581793e+00  -1.5556766417436383e+00  -1.5561644470126801e+00  -1.5562336204072038e+00  -1.5542914891419943e+00  0.0000000000000000e+00  0.0000000000000000e+00  0.0000000000000000e+00  0.0000000000000000e+00  0.0000000000000000e+00  0.0000000000000000e+00  0.0000000000000000e+00  0.0000000000000000e+00  0.0000000000000000e+00  -1.5583861859003483e+00  -1.5556857788688576e+00  -1.5561684569151168e+00  -1.5562348293626718e+00  -1.5543387526644732e+00  </DataArray> 
</PointData> 
</Piece>
</UnstructuredGrid>
</VTKFile>