<?xml version="1.0"?>
<VTKFile type="UnstructuredGrid"  version="0.1"  >
<UnstructuredGrid>
<Piece  NumberOfPoints="589" NumberOfCells="1080">
<Points>
<DataArray  type="Float64"  NumberOfComponents="3"  format="ascii">-9 0 0  -8 0 0  -7 0 0  -6 0 0  -5 0 0  -4 0 0  -3 0 0  -2 0 0  -1 0 0  0 0 0  1 0 0  2 0 0  3 0 0  4 0 0  5 0 0  6 0 0  7 0 0  8 0 0  9 0 0  -9 2 0  -7.999999663957157 2.000000050745127 0  -6.99999937086418 2.000000100584964 0  -5.999999170230753 2.000000149418712 0  -4.999999130465992 2.000000196874276 0  -3.999999247998207 2.000000083003909 0  -2.999999285413318 2.000000014040163 0  -1.999999288539046 1.999999959541636 0  -0.9999992657225844 1.999999892621807 0  8.068333411376857e-07 1.999999785032902 0  1.000000987695515 1.999999597777552 0  2.000001372450073 1.999999289212218 0  3.000002080969997 1.999998830981106 0  4.00000328638685 1.999998058595581 0  5.000005204239205 1.99999684896358 0  6.000003539788708 1.99999751194798 0  7.000002231926016 1.999998291052465 0  8.000001085594436 1.99999913160756 0  9 2 0  -9.000000000004983 4 0  -7.999999156115086 4.000000105111412 0  -6.999998371889955 4.000000205194316 0  -5.999997696986059 4.000000304350309 0  -4.999997165828258 4.000000425121465 0  -3.999997131682702 4.000000095300693 0  -2.999997024613095 3.999999903886472 0  -1.999996893665948 3.999999770016857 0  -0.9999967495783543 3.999999614146205 0  3.404413173498322e-06 3.999999347759454 0  1.00000362987764 3.999998795531391 0  2.000004054901867 3.999997883017065 0  3.000004834934352 3.999996570300527 0  4.00000603406218 3.999994820315249 0  5.000007452314124 3.999992759575694 0  6.000005653213818 3.999994559424431 0  7.000003817718241 3.999996336310297 0  8.000001928233083 3.999998151872053 0  9 4 0  -9 6 0  -7.999998409615223 6.000000179591622 0  -6.999996935631637 6.000000313511308 0  -5.999995648757004 6.000000372821265 0  -4.999994528313017 6.00000037856373 0  -3.999994293920127 5.999999827356154 0  -2.999993966814066 5.999999405807727 0  -1.999993464023251 5.999999136988823 0  -0.9999930937095735 5.99999916804717 0  7.033840759882267e-06 5.999999022725638 0  1.000006991226589 5.99999839140408 0  2.000006992963861 5.999996992989068 0  3.000007329261321 5.999994703399198 0  4.000008206662929 5.99999196210997 0  5.00000977596692 5.999989597194587 0  6.000007912215573 5.999991698763682 0  7.000005619459781 5.999994226877584 0  8.000002925852979 5.999997041884311 0  9 6 0  -9 8 0  -7.999997197448947 8.000000436758336 0  -6.999994750942694 8.000000720266318 0  -5.999992934809504 8.000000655561923 0  -4.99999179987687 7.99999994652848 0  -3.999991844302326 7.99999852896581 0  -2.999990258111815 7.999997296547954 0  -1.999988903667668 7.99999755386441 0  -0.999988288008098 7.999998677108323 0  1.181433053745731e-05 7.999999163652533 0  1.000011625000846 7.9999991263826 0  2.000011193447629 7.999997425328973 0  3.000010430946463 7.99999457051174 0  4.000010449393976 7.999989579702481 0  5.00001295858668 7.999984259587219 0  6.000011887220815 7.999987131951007 0  7.000009024579845 7.999990969903153 0  8.000004852429228 7.999995359488894 0  9 8 0  -9 10 0  -7.999994561129098 10.00000130691618 0  -6.999990044858021 10.00000251985261 0  -5.999987496062694 10.00000351558193 0  -4.999988263411809 10.00000410068886 0  -3.999989201676642 9.999997285426286 0  -2.99998622059603 9.999992243185156 0  -1.999985102563703 9.999996663505884 0  -0.9999856710746715 9.999998136004479 0  1.490481470561966e-05 9.999998494981233 0  1.000016043850963 9.999998126549924 0  2.000018136654534 9.999996819216548 0  3.000019241187241 9.999997396064423 0  4.000018843644314 9.999986287513854 0  5.000023762983455 9.999972574385778 0  6.000023027170185 9.999978702942267 0  7.000017667604808 9.999985506501245 0  8.000009500008614 9.999992673472168 0  9 10 0  -9 12 0  -7.999988234502322 12.00000255297056 0  -6.999977468999808 12.00000518822974 0  -5.999968792499213 12.00000801811845 0  -4.999963484729778 12.00001123281187 0  -3.999964162128841 11.99999508817798 0  -2.999960544715332 11.99997880466181 0  -1.999950075251663 11.99998484897572 0  -0.9999428560033101 11.99999018203168 0  6.21051680752055e-05 11.99999498911342 0  1.000064953522962 11.99999956154463 0  2.000065222924432 12.00000426289028 0  3.000061595033603 12.00000967754788 0  4.000059487338882 11.99998306919251 0  5.000063032754769 11.99995605620824 0  6.000052661176055 11.99996757440048 0  7.000037542200182 11.9999785897542 0  8.000019476863127 11.9999893494305 0  9 12 0  -9 14 0  -7.999977908046909 14.00000346984739 0  -6.999956537315193 14.00000707805394 0  -5.999936614249583 14.00001098137793 0  -4.999918859378807 14.00001537459239 0  -3.999918616299403 13.99999129495266 0  -2.99991550750488 13.99996672234072 0  -1.999902047614026 13.99997587944004 0  -0.9998910086508273 13.99998433216233 0  0.0001177569247617513 13.99999242229422 0  1.000124179152314 14.00000048155149 0  2.000127898464927 14.00000885430609 0  3.000128225577404 14.00001790264269 0  4.000127234466169 13.99998078459936 0  5.000130286000373 13.99994347593404 0  6.000101282517895 13.99995845818242 0  7.00006920076217 13.99997269634186 0  8.00003509877418 13.99998646220379 0  9 14 0  -9 16 0  -7.999964696839328 16.00000383327361 0  -6.999929815068775 16.00000778738468 0  -5.999895763297981 16.00001198503048 0  -4.999862919380763 16.00001654951189 0  -3.999862249680201 15.99998792866343 0  -2.999860099927158 15.9999591110687 0  -1.999844337040072 15.99996972725532 0  -0.9998300681616297 15.99997993277218 0  0.00018278196727637 15.99998997935393 0  1.000194216624111 16.00000014804109 0  2.000204143375316 16.00001074430948 0  3.00021237569589 16.00002209749858 0  4.000212327018173 15.99997871994509 0  5.000214034096081 15.99993504328971 0  6.000162212786321 15.99995231942747 0  7.000108937411829 15.99996869288427 0  8.000054705843761 15.99998448770976 0  9 16 0  -9 18 0  -7.999949799906371 18.00000371334458 0  -6.999899772750186 18.00000752256402 0  -5.999850080640214 18.00001152131122 0  -4.999800863130043 18.00001579803745 0  -3.99979987588143 17.99998500749196 0  -2.999798283218385 17.99995396012325 0  -1.999780649463479 17.99996521729345 0  -0.999763452945621 17.99997616919391 0  0.0002534689957994735 17.99998704828734 0  1.000270286266364 17.99999810473519 0  2.000287167175967 18.00000960745031 0  3.000304284105005 18.00002184474903 0  4.000305152667994 17.99997689829721 0  5.000305696124465 17.99993170332599 0  6.000228953726374 17.9999497925526 0  7.000152494850592 17.99996700472601 0  8.000076207239069 17.99998364380057 0  9 18 0  -9 20 0  -7.999934210989602 20.00000320991134 0  -6.999868389714221 20.00000649961846 0  -5.999802498325447 20.00000994652008 0  -4.999736488245669 20.00001362297623 0  -3.999735265269305 19.99998239189371 0  -2.9997341863542 19.99995090016956 0  -1.999715212863687 19.99996192821364 0  -0.9996957397463955 19.99997269689454 0  0.0003245754359293607 19.9999834079769 0  1.000346102629732 19.99999427673018 0  2.000369248252036 20.00000553283503 0  3.000394469148988 20.00001742137028 0  4.000396178440902 19.99997541434007 0  5.000395617635491 19.99993315917465 0  6.000294553818033 19.99995077489262 0  7.000195362698574 19.99996760961861 0  8.000097383756096 19.99998393173143 0  8.999999999970978 19.99999999998952 0  -9 22 0  -7.999918750623221 22.00000238728008 0  -6.999837286139678 22.00000484786542 0  -5.999755389256203 22.00000745345808 0  -4.999672842555515 22.0000102724207 0  -3.999671423891666 21.99998008339954 0  -2.999670805614753 21.9999496336984 0  -1.999651774215329 21.99995967628615 0  -0.9996313937276339 21.99996945484245 0  0.0003908353063787479 21.99997913699087 0  1.000415447389503 21.99998889949094 0  2.000443031175503 21.99999892885688 0  3.00047425071361 22.00000942216679 0  4.000476627581907 21.99997426882798 0  5.000475125010373 21.99993886967896 0  6.000352655044141 21.99995488201866 0  7.000233376788347 21.99997026546957 0  8.000116176395675 21.99998523530124 0  9 22 0  -9 24 0  -7.99990414991579 24.00000127139741 0  -6.999807910724903 24.00000261603006 0  -5.999710877287208 24.00000410683315 0  -4.999612666493984 24.0000058157229 0  -3.999611052569073 23.99997806754745 0  -2.999610890388504 23.99995005807246 0  -1.999593731001186 23.9999584800517 0  -0.999574440456874 23.99996659812814 0  0.0004475650045360249 23.99997454444232 0  1.000472908074663 23.99998245478061 0  2.000502274737341 23.99999046926675 0  3.000536439783994 23.99999873285207 0  4.000539255323543 23.99997348727974 0  5.000537031582045 23.99994799903206 0  6.00039798188096 23.99996150533557 0  7.000263074344457 23.99997457616567 0  8.000130870040163 23.99998735952792 0  9 24 0  -9 26 0  -7.999891130888241 25.99999986252642 0  -6.99978168186416 25.99999979986973 0  -5.999671072883718 25.99999988774843 0  -4.999558731292539 26.00000020342293 0  -3.999556906805632 25.99997633818384 0  -2.999557216427552 25.99995221287875 0  -1.999544209747808 25.99995849909924 0  -0.9995283453359468 25.99996442805178 0  0.00049094644322876 25.99997009552247 0  1.000514277337918 25.99997559335026 0  2.000542328673596 25.99998101332125 0  3.000575874737876 25.99998644591524 0  4.000578863622054 25.99997308562046 0  5.000576174963291 25.9999594835592 0  6.000426732676548 25.99996987102586 0  7.00028195413788 25.99998003699662 0  8.00014022400739 25.99999005538421 0  9 26 0  -9 28 0  -7.999880430420522 27.9999981543342 0  -6.999760090726126 27.99999638148103 0  -5.999638209086775 27.99999475631735 0  -4.99951401047526 27.99999335789867 0  -3.999511964143923 27.99997489908409 0  -2.999512761637424 27.99995618277433 0  -1.999506120090655 27.99995994562537 0  -0.9994959592985857 27.9999633075508 0  0.000518171271657084 27.99996632387203 0  1.000536769994603 27.99996904312232 0  2.00056040640828 27.99997150715218 0  3.000589744022699 27.99997375110195 0  4.000592630250297 27.99997307203302 0  5.000589745124008 27.99997215068903 0  6.0004368214221 27.99997912306051 0  7.000288635814099 27.99998608835664 0  8.00
[...]
<PointData  Scalars="f_44-1"> 
<DataArray  type="Float64"  Name="f_44-1"  format="ascii">-3.7504233427124162e-04  -5.9722968544697808e-05  -1.4383280524778624e-05  -1.2175013890852943e-04  9.2897727852727795e-04  0.0000000000000000e+00  0.0000000000000000e+00  0.0000000000000000e+00  0.0000000000000000e+00  0.0000000000000000e+00  0.0000000000000000e+00  0.0000000000000000e+00  0.0000000000000000e+00  0.0000000000000000e+00  -3.9737860391095872e-04  -3.3939018212340593e-05  9.3571085804912409e-06  -1.1657860274794378e-04  9.5735761710710526e-04  -4.5572292172837443e-03  -4.5666236196440901e-03  -4.5926771243617890e-03  -4.5910924193062431e-03  -4.5314172303876745e-03  0.0000000000000000e+00  0.0000000000000000e+00  0.0000000000000000e+00  0.0000000000000000e+00  0.0000000000000000e+00  0.0000000000000000e+00  0.0000000000000000e+00  0.0000000000000000e+00  0.0000000000000000e+00  -5.1609653962798336e-03  -5.1943188820915732e-03  -5.2338233203635329e-03  -5.2132978762981707e-03  -5.1362860807543124e-03  -9.2287895736054767e-03  -9.2483969788385804e-03  -9.2720702444996934e-03  -9.2764901411138412e-03  -9.2543671425250398e-03  0.0000000000000000e+00  0.0000000000000000e+00  0.0000000000000000e+00  0.0000000000000000e+00  0.0000000000000000e+00  0.0000000000000000e+00  0.0000000000000000e+00  0.0000000000000000e+00  0.0000000000000000e+00  -1.0443132985109946e-02  -1.0418178021537758e-02  -1.0405515332521301e-02  -1.0416878825209818e-02  -1.0421501513653082e-02  -1.3844025772914381e-02  -1.3825071296455105e-02  -1.3780141383045655e-02  -1.3727841691824130e-02  -1.3691722601232539e-02  0.0000000000000000e+00  0.0000000000000000e+00  0.0000000000000000e+00  0.0000000000000000e+00  0.0000000000000000e+00  0.0000000000000000e+00  0.0000000000000000e+00  0.0000000000000000e+00  0.0000000000000000e+00  -1.5607786394072107e-02  -1.5598731993417547e-02  -1.5597582539631989e-02  -1.5595013198011114e-02  -1.5595925655657468e-02  -1.8520609708131162e-02  -1.8519052821108068e-02  -1.8534897915977216e-02  -1.8562648123349245e-02  -1.8575624535027865e-02  0.0000000000000000e+00  0.0000000000000000e+00  0.0000000000000000e+00  0.0000000000000000e+00  0.0000000000000000e+00  0.0000000000000000e+00  0.0000000000000000e+00  0.0000000000000000e+00  0.0000000000000000e+00  -2.0856343307509555e-02  -2.0801454128727703e-02  -2.0769678492364153e-02  -2.0760014438316016e-02  -2.0752459853522160e-02  -2.3194413417889012e-02  -2.3187168295060089e-02  -2.3182901930113194e-02  -2.3167325853459094e-02  -2.3229571248555753e-02  0.0000000000000000e+00  -5.5058823352681294e-02  -5.5069640935922773e-02  -5.5322566947058255e-02  -5.5425877808534869e-02  -5.5321949537172475e-02  -5.4998147147457661e-02  -5.4465465237335871e-02  0.0000000000000000e+00  -2.5867201124076748e-02  -2.5843745147335350e-02  -2.5872827605180268e-02  -2.5897072070500609e-02  -2.5897736763545218e-02  -2.7881151756065235e-02  -2.7860769955390260e-02  -2.7818160147589550e-02  -2.7739706540880635e-02  -2.7696502479766343e-02  0.0000000000000000e+00  -5.5413244048746958e-02  -5.5652781924043750e-02  -5.5778625513502683e-02  -5.5787597219923567e-02  -5.5715755323153981e-02  -5.5594900443229386e-02  -5.5468181918625313e-02  0.0000000000000000e+00  -3.0816513541200734e-02  -3.0873475443907530e-02  -3.0995939177694921e-02  -3.1073843776323627e-02  -3.1093582535450040e-02  -3.2635691992761069e-02  -3.2602584734563476e-02  -3.2533747299006058e-02  -3.2422560900032905e-02  -3.2358143430133345e-02  0.0000000000000000e+00  -5.6494421736416660e-02  -5.6530667178821402e-02  -5.6541650544939363e-02  -5.6525359583250306e-02  -5.6467962067706906e-02  -5.6361045946857431e-02  -5.6228773227352348e-02  0.0000000000000000e+00  -3.6019157512910252e-02  -3.6133552991518408e-02  -3.6289342565895014e-02  -3.6379877079725696e-02  -3.6415400431433209e-02  -3.7482445711811321e-02  -3.7443169874602979e-02  -3.7375853325521922e-02  -3.7282306830700586e-02  -3.7234651018612543e-02  0.0000000000000000e+00  -5.7374815941500186e-02  -5.7457106869336777e-02  -5.7488290042082876e-02  -5.7471482966453165e-02  -5.7407379920550436e-02  -5.7293869180994918e-02  -5.7129016914661303e-02  0.0000000000000000e+00  -4.1592592338460285e-02  -4.1654157626096255e-02  -4.1766055424951765e-02  -4.1838963587899208e-02  -4.1875566286042991e-02  -4.2385063074411332e-02  -4.2347288309741521e-02  -4.2306102078867265e-02  -4.2270053462636223e-02  -4.2280217725618970e-02  0.0000000000000000e+00  -5.8482224729755443e-02  -5.8577037751702726e-02  -5.8619135159952915e-02  -5.8608422847502305e-02  -5.8545753249634666e-02  -5.8429102331541159e-02  -5.8263104919618385e-02  0.0000000000000000e+00  -4.7357470790886987e-02  -4.7324822416059627e-02  -4.7352087983875253e-02  -4.7379673211270963e-02  -4.7412102418751961e-02  -4.7257511968773216e-02  -4.7227483189665749e-02  -4.7226785843547663e-02  -4.7267603773913230e-02  -4.7350715271783077e-02  0.0000000000000000e+00  -5.9816846396132321e-02  -5.9919863920787866e-02  -5.9967650005641707e-02  -5.9959918934266491e-02  -5.9899785009579501e-02  -5.9785217516174827e-02  -5.9616254629928443e-02  0.0000000000000000e+00  -5.3110330008072353e-02  -5.2975871743569672e-02  -5.2903808220029332e-02  -5.2875969939656542e-02  -5.2899518358596798e-02  -5.1990941329049536e-02  -5.1972904719429058e-02  -5.2017113732619080e-02  -5.2136547752933013e-02  -5.2289210561031925e-02  0.0000000000000000e+00  -6.1393440404254561e-02  -6.1490792479640177e-02  -6.1536670710730379e-02  -6.1530515213038359e-02  -6.1475016797957291e-02  -6.1368163281214638e-02  -6.1208091381873678e-02  0.0000000000000000e+00  -5.8660173172568539e-02  -5.8431411212698486e-02  -5.8261888270041959e-02  -5.8178563786757703e-02  -5.8188913215658646e-02  -5.6479527704720679e-02  -5.6475689497366914e-02  -5.6561202972961848e-02  -5.6747677128334277e-02  -5.6954016531518152e-02  0.0000000000000000e+00  -6.3202860359013013e-02  -6.3280263022036543e-02  -6.3315117126689566e-02  -6.3306773375217659e-02  -6.3257288003447612e-02  -6.3165287512510257e-02  -6.3027219107417945e-02  0.0000000000000000e+00  -6.3831843100301364e-02  -6.3529822012511811e-02  -6.3278314157230106e-02  -6.3146848103099840e-02  -6.3141534640209204e-02  -6.0640330899352300e-02  -6.0650923368405288e-02  -6.0768125825316086e-02  -6.1000606218293008e-02  -6.1236572053882596e-02  0.0000000000000000e+00  -6.5205206063651169e-02  -6.5250439931059626e-02  -6.5266568406119982e-02  -6.5253114442234361e-02  -6.5211166644835783e-02  -6.5140128370657122e-02  -6.5035114115753467e-02  0.0000000000000000e+00  -6.8490951038688269e-02  -6.8145243840576589e-02  -6.7836864224563698e-02  -6.7670323442099986e-02  -6.7649218173356215e-02  -6.4426713391855517e-02  -6.4450276446114702e-02  -6.4585516674575516e-02  -6.4837137641631570e-02  -6.5074455084539601e-02  0.0000000000000000e+00  -6.7339555582232688e-02  -6.7344322670057605e-02  -6.7336535109312548e-02  -6.7315896508441289e-02  -6.7282410733230880e-02  -6.7236351961575846e-02  -6.7172096094248623e-02  0.0000000000000000e+00  -7.2556912919624295e-02  -7.2201582823865101e-02  -7.1867469474662452e-02  -7.1682676349526034e-02  -7.1647701206253744e-02  -6.7836162854471221e-02  -6.7869565665978085e-02  -6.8006954907716466e-02  -6.8248452254070474e-02  -6.8458256559490546e-02  0.0000000000000000e+00  -6.9532170603988350e-02  -6.9492925476730943e-02  -6.9458981628292435e-02  -6.9430083575060697e-02  -6.9405230828876896e-02  -6.9385541084248478e-02  -6.9365292447437402e-02  0.0000000000000000e+00  -7.6010270836233171e-02  -7.5680169239896178e-02  -7.5353951301443081e-02  -7.5169548074724798e-02  -7.5124219316981211e-02  -7.0910416232252430e-02  -7.0949867247773662e-02  -7.1073384869094466e-02  -7.1276619454080994e-02  -7.1432869250776132e-02  0.0000000000000000e+00  -7.1706155346372896e-02  -7.1624161341095560e-02  -7.1564716922989269e-02  -7.1527465683160985e-02  -7.1510559114404293e-02  -7.1515858565577267e-02  -7.1538182207778786e-02  0.0000000000000000e+00  -7.8894147339124393e-02  -7.8621308230347284e-02  -7.8335677068759130e-02  -7.8170252249325306e-02  -7.8119190184128037e-02  -7.3734716336682327e-02  -7.3774806859223094e-02  -7.3869745288368843e-02  -7.4010531601884894e-02  -7.4092781745841593e-02  0.0000000000000000e+00  -7.3790244171402411e-02  -7.3671064774958814e-02  -7.3589299198675684e-02  -7.3544361718066900e-02  -7.3533840965774047e-02  -7.3560204814716521e-02  -7.3619326873334945e-02  0.0000000000000000e+00  -8.1308977331384702e-02  -8.1119787705818791e-02  -8.0903519479885763e-02  -8.0773675413887622e-02  -8.0722086765985426e-02  -7.6421516707604678e-02  -7.6459461947722504e-02  -7.6514814554212107e-02  -7.6575061896481417e-02  -7.6570546537619480e-02  0.0000000000000000e+00  -7.5725609382278666e-02  -7.5578162350199402e-02  -7.5479050091087602e-02  -7.5427627886820378e-02  -7.5421197384591035e-02  -7.5462628319955816e-02  -7.5549170328326504e-02  0.0000000000000000e+00  -8.3402850731997366e-02  -8.3315737830683481e-02  -8.3190036383607197e-02  -8.3108889740144271e-02  -8.3062059869836780e-02  -7.9112659959445150e-02  -7.9139294350855205e-02  -7.9145332890050213e-02  -7.9118012197483281e-02  -7.9026326053144483e-02  0.0000000000000000e+00  -7.7470379696632660e-02  -7.7305540849594040e-02  -7.7195103970406173e-02  -7.7138682057530578e-02  -7.7133486514829264e-02  -7.7182553250859223e-02  -7.7284635401080298e-02  0.0000000000000000e+00  -8.5358751940020253e-02  -8.5377622906782996e-02  -8.5355971676939563e-02  -8.5331929267424181e-02  -8.5294645039795988e-02  -8.1931348546198005e-02  -8.1951576771642526e-02  -8.1915835926271358e-02  -8.1804811858972051e-02  -8.1629952987471763e-02  0.0000000000000000e+00  -7.9001389664703742e-02  -7.8830878452628164e-02  -7.8715280435541254e-02  -7.8654999960551406e-02  -7.8647637449650212e-02  -7.8696339254376274e-02  -7.8801087709156073e-02  0.0000000000000000e+00  -8.7353905677085508e-02  -8.7490614563535227e-02  -8.7574517213854244e-02  -8.7608720023960432e-02  -8.7584521717580618e-02  -8.5027253486807744e-02  -8.5033388987482569e-02  -8.4943934473324018e-02  -8.4746208961452685e-02  -8.4503849184875759e-02  0.0000000000000000e+00  -8.0315099901745443e-02  -8.0148937875815215e-02  -8.0032500985203439e-02  -7.9969999361330230e-02  -7.9959323013779907e-02  -8.0001372035052629e-02  -8.0096709740064234e-02  0.0000000000000000e+00  -8.9636736838379208e-02  -8.9834047134998679e-02  -9.0007783027618540e-02  -9.0097605433770794e-02  -9.0089186552389580e-02  -8.8468810662894026e-02  -8.8449496319795373e-02  -8.8331966882777391e-02  -8.8115840961312683e-02  -8.7864765711554341e-02  0.0000000000000000e+00  -8.1429818202271076e-02  -8.1265003867203367e-02  -8.1151784472657335e-02  -8.1087912779072610e-02  -8.1071265542810522e-02  -8.1102699177272461e-02  -8.1185575201884519e-02  0.0000000000000000e+00  -9.2208464742418964e-02  -9.2534372012578373e-02  -9.2800659391820500e-02  -9.2933932469109956e-02  -9.2940368034165791e-02  -9.2298919549177183e-02  -9.2306113059894251e-02  -9.2185322967461625e-02  -9.1917101268747498e-02  -9.1601854579456618e-02  0.0000000000000000e+00  -8.2323958158338983e-02  -8.2191040949955066e-02  -8.2083990886754291e-02  -8.2026522581113689e-02  -8.2010345273315105e-02  -8.2022115473106297e-02  -8.2059350850153520e-02  0.0000000000000000e+00  -9.5497370452234526e-02  -9.5784662103271634e-02  -9.6056274846202203e-02  -9.6212706876465048e-02  -9.6234394209861601e-02  -9.6699100245135769e-02  -9.6629931180775508e-02  -9.6450753783507814e-02  -9.6153990674575543e-02  -9.5842330035306386e-02  0.0000000000000000e+00  -8.3083396287501124e-02  -8.2954665142893708e-02  -8.2833883686704343e-02  -8.2762136594251731e-02  -8.2771254550486423e-02  -8.2896787598789781e-02  -8.3135455592933200e-02  0.0000000000000000e+00  -9.9198220822109676e-02  -9.9517431476153939e-02  -9.9818809786292484e-02  -9.9962643176984056e-02  -9.9979435985960333e-02  -1.0112646853269552e-01  -1.0115596620591776e-01  -1.0108617350282165e-01  -1.0097291454133385e-01  -1.0079255648350913e-01  0.0000000000000000e+00  -8.4074278264192101e-02  -8.3549314061805935e-02  -8.3227818639057413e-02  -8.3123982815423311e-02  -8.3226546940837851e-02  -8.3476426875865789e-02  -8.3487723546157785e-02  0.0000000000000000e+00  -1.0346336759971145e-01  -1.0377565317266568e-01  -1.0398593060942773e-01  -1.0412966692333592e-01  -1.0418079041144823e-01  -1.0653296075479603e-01  -1.0647808414235550e-01  -1.0638751108623923e-01  -1.0621382237241542e-01  -1.0607079608370767e-01  0.0000000000000000e+00  0.0000000000000000e+00  0.0000000000000000e+00  0.0000000000000000e+00  0.0000000000000000e+00  0.0000000000000000e+00  0.0000000000000000e+00  0.0000000000000000e+00  0.0000000000000000e+00  -1.0881654608594989e-01  -1.0878941300460780e-01  -1.0879198012239386e-01  -1.0873755384024898e-01  -1.0869469291847633e-01  -1.1106348990975655e-01  -1.1103707969562962e-01  -1.1100841153165407e-01  -1.1106792385119274e-01  -1.1105138662239594e-01  0.0000000000000000e+00  0.0000000000000000e+00  0.0000000000000000e+00  0.0000000000000000e+00  0.0000000000000000e+00  0.0000000000000000e+00  0.0000000000000000e+00  0.0000000000000000e+00  0.0000000000000000e+00  -1.1288998852907982e-01  -1.1286557202352136e-01  -1.1286425696284247e-01  -1.1295892497035218e-01  -1.1298441804254980e-01  -1.1692866147862768e-01  -1.1703127376911315e-01  -1.1704062055957148e-01  -1.1685144835000878e-01  -1.1691044150910157e-01  0.0000000000000000e+00  0.0000000000000000e+00  0.0000000000000000e+00  0.0000000000000000e+00  0.0000000000000000e+00  0.0000000000000000e+00  0.0000000000000000e+00  0.0000000000000000e+00  0.0000000000000000e+00  -1.1820662814917295e-01  -1.1828467610133434e-01  -1.1828684559453578e-01  -1.1809850192549529e-01  -1.1816017891368452e-01  -1.2253029104097334e-01  -1.2190252276502725e-01  -1.2129377361474665e-01  -1.2108328937891259e-01  -1.2072330829509759e-01  0.0000000000000000e+00  0.0000000000000000e+00  0.0000000000000000e+00  0.0000000000000000e+00  0.0000000000000000e+00  0.0000000000000000e+00  0.0000000000000000e+00  0.0000000000000000e+00  0.0000000000000000e+00  -1.2312695587977146e-01  -1.2251138177316778e-01  -1.2191949160377537e-01  -1.2172106074809090e-01  -1.2137263850963124e-01  -1.2676214124459942e-01  -1.2627197008257818e-01  -1.2706497526174365e-01  -1.2678646639289348e-01  -1.2626950428000275e-01  0.0000000000000000e+00  0.0000000000000000e+00  0.0000000000000000e+00  0.0000000000000000e+00  0.0000000000000000e+00  0.0000000000000000e+00  0.0000000000000000e+00  0.0000000000000000e+00  0.0000000000000000e+00  -1.2670058368936796e-01  -1.2627687508239493e-01  -1.2706580656661931e-01  -1.2678657813532671e-01  -1.2629860938002252e-01  </DataArray> 
</PointData> 
</Piece>
</UnstructuredGrid>
</VTKFile>