<?xml version="1.0"?>
<VTKFile type="UnstructuredGrid"  version="0.1"  >
<UnstructuredGrid>
<Piece  NumberOfPoints="589" NumberOfCells="1080">
<Points>
<DataArray  type="Float64"  NumberOfComponents="3"  format="ascii">-9 0 0  -8 0 0  -7 0 0  -6 0 0  -5 0 0  -4 0 0  -3 0 0  -2 0 0  -1 0 0  0 0 0  1 0 0  2 0 0  3 0 0  4 0 0  5 0 0  6 0 0  7 0 0  8 0 0  9 0 0  -9 2 0  -8.000001217890093 1.99999863534554 0  -7.00000258774003 1.999997377898624 0  -6.000004380540643 1.999996307312773 0  -5.000007143986217 1.999995434497905 0  -4.000004915360324 1.999996753252669 0  -3.000002477172456 1.999997681933291 0  -2.000001069773726 1.999998412671128 0  -1.000000382339371 1.999998979290125 0  -1.400439572292092e-07 1.999999224731563 0  1.000000064439901 1.999999066903625 0  2.000000620629891 1.999998540868763 0  3.000001805907162 1.999997860798223 0  4.000003733761154 1.999997059506036 0  5.000006390854433 1.99999654982986 0  6.000003887663039 1.999996921126249 0  7.00000228604187 1.999997716418628 0  8.000001074120245 1.999998788828659 0  9 2 0  -9 4 0  -8.000001827936606 3.999996841870247 0  -7.000003483674415 3.9999940083608 0  -6.000004878494476 3.999991823546467 0  -5.000006055393611 3.99999061102461 0  -4.000003176380647 3.999991062142827 0  -3.00000101344683 3.999993175061631 0  -1.999999941861537 3.99999591647663 0  -0.9999998191311251 3.999998081446303 0  -2.38701225976554e-07 3.999998962014803 0  0.9999993109336082 3.999998323851609 0  1.999999337918176 3.999996527302315 0  3.000000340233838 3.999994061179144 0  4.000002434827415 3.999991566285801 0  5.000005159638378 3.999990622307881 0  6.000004169032611 3.999992146274702 0  7.000003013278801 3.999994324376331 0  8.000001597029106 3.999997022621858 0  9 4 0  -9 6 0  -8.000003126770153 5.999993749947923 0  -7.000005423281459 5.99998804407257 0  -6.000006248139071 5.999983450635431 0  -5.000005404731672 5.999980533700263 0  -4.000000414665438 5.999983445130755 0  -2.999997818443882 5.999989581245101 0  -1.999997955472376 5.999996013688977 0  -0.9999992720943536 5.999999630499667 0  -6.242296808272653e-07 6.000000415191677 0  0.9999982405201897 5.999999254295475 0  1.999997558586995 5.999996059991589 0  2.999997688739161 5.99999072562751 0  3.999999303438156 5.999985207271323 0  5.000003591777689 5.999982538476178 0  6.000005111000074 5.999984754908743 0  7.000004782494338 5.999988851789603 0  8.000002843044269 5.999994139916147 0  9 6 0  -9 8 0  -8.000007746891413 7.999988481454596 0  -7.000013249465463 7.999977630174489 0  -6.000014290832569 7.999968371852544 0  -5.000008867281634 7.999962269449586 0  -4.000000033349169 7.999975517077553 0  -3.00000091210242 7.999991099272503 0  -2.000003448535514 7.999998846746299 0  -1.000003131062389 7.999999965684306 0  -7.226439173118547e-07 8.000000303505738 0  1.000001258137377 8.000000939708213 0  2.000001211527828 7.999997731443851 0  2.999998235901194 7.9999920940002 0  3.999997869288123 7.999978868965065 0  5.000006713196258 7.999964112403185 0  6.000013443801462 7.99996984193014 0  7.00001299539067 7.999978614363282 0  8.000007703346542 7.999988969495874 0  9 8 0  -9 10 0  -8.000021343687855 9.999980544395397 0  -7.00003891978422 9.999960845195842 0  -6.000048192577259 9.999940670626293 0  -5.000042770773841 9.999919813482292 0  -4.000029380410814 9.999961102996117 0  -3.000030241342619 9.999996838053965 0  -2.00002364144791 9.999991562249933 0  -1.000011292450991 9.999989870638844 0  -1.936683601176254e-06 9.999989470199857 0  1.000007341824234 9.999989436546899 0  2.000019299373162 9.999988997934635 0  3.000030566472653 10.00000066006855 0  4.000030561821254 9.99996706621414 0  5.000045386976318 9.9999233103356 0  6.000050491477618 9.999942758269775 0  7.000040582067648 9.999962046684198 0  8.000022208345259 9.999981097950638 0  9 10 0  -9 12 0  -8.000050008259461 11.99997358269306 0  -7.00009779914137 11.99994596331054 0  -6.000140864671619 11.999915702443 0  -5.000176120930125 11.99988079041193 0  -4.00016981839639 11.99995363439836 0  -3.000174899445414 12.00002576280554 0  -2.000119589042923 12.00001695435943 0  -1.000059553012932 12.00001217500114 0  2.223986777485506e-06 12.00001114612034 0  1.000064666746992 12.00001399356751 0  2.000126971414893 12.00002161690531 0  3.000187158145851 12.00003630305132 0  4.000182114138708 11.99995906295455 0  5.000185933019419 11.99988128336961 0  6.000147589238058 11.99991631477271 0  7.000102023149717 11.99994642891141 0  8.00005205002839 11.99997382410566 0  9 12 0  -9 14 0  -8.000087537217711 13.99997143032826 0  -7.000175571804771 13.99994164914105 0  -6.000264760127706 13.99990934147648 0  -5.000356170086314 13.99987299393541 0  -4.000357413598679 13.99995515940703 0  -3.000356865430918 14.00003845767608 0  -2.000234448798988 14.00002623220339 0  -1.000114781802562 14.00001947920122 0  3.7225534018857e-06 14.00001731830823 0  1.000122551075534 14.00001944896188 0  2.000243128746051 14.00002598750614 0  3.00036675735859 14.00003730561956 0  4.000368873058141 13.99995518087703 0  5.00036902434953 13.99987365940037 0  6.000273563900691 13.99990954438012 0  7.000181085117451 13.99994168932108 0  8.00009019477633 13.99997142877661 0  9 14 0  -9 16 0  -8.000123069955761 15.99997412464361 0  -7.000248718502466 15.99994744220392 0  -6.000379751381818 15.99991914198426 0  -5.000519453097634 15.99988842498344 0  -4.000524492822838 15.99995543627039 0  -3.00051908618613 16.00002203193791 0  -2.000338327365961 16.00001362551478 0  -1.000165367755487 16.00000841922064 0  3.924504075928462e-06 16.00000632811906 0  1.000173446479985 16.00000727652554 0  2.000347098692801 16.00001124354342 0  3.000529042562615 16.00001824223594 0  4.000535050091141 15.99995229551844 0  5.000530325255618 15.9998862965316 0  6.000387592017664 15.99991773646423 0  7.000253781258274 15.99994657334885 0  8.000125550065993 15.99997370725676 0  9 16 0  -9 18 0  -8.000148281702268 17.99998004736628 0  -7.000300315011408 17.9999597068927 0  -6.000460047765809 17.99993861042223 0  -5.00063182342191 17.99991643421238 0  -4.000638987670334 17.99995480725546 0  -3.000631625639928 17.99999312994631 0  -2.000411030000653 17.9999882223285 0  -1.000201294264385 17.99998490247384 0  3.20708092515667e-06 17.99998318387478 0  1.000207829717142 17.99998303350415 0  2.000417921430947 17.99998437649845 0  3.000639080371594 17.99998708395404 0  4.000646826905262 17.99995006521559 0  5.000639840685287 17.99991318683774 0  6.000465908782095 17.99993634195792 0  7.0003041456305 17.99995827003474 0  8.000150173118445 17.99997935061987 0  9 18 0  -9 20 0  -8.000158480934164 19.99998752121846 0  -7.000321101784029 19.99997499550743 0  -6.000492153056212 19.99996239767786 0  -5.00067622565807 19.99994974697767 0  -4.000684046997937 19.99995397593102 0  -3.000676029211593 19.99995816637437 0  -2.000440315648111 19.99995647039345 0  -1.000216294061686 19.99995498317125 0  2.004030231993051e-06 19.99995376922463 0  1.000220346379229 19.9999528194016 0  2.000444496489688 19.99995205367762 0  3.000680410819146 19.999951316907 0  4.000688527138181 19.99994871071927 0  5.000680773147411 19.99994620280852 0  6.000495529684302 19.99995985564555 0  7.000323334943325 19.99997335663697 0  8.000159591779012 19.99998671855432 0  8.999999999998098 20 0  -9 22 0  -8.000152115179912 21.99999518252932 0  -7.000308155551575 21.99999057233818 0  -6.00047215415972 21.99998639608855 0  -5.000648357655537 21.99998291944671 0  -4.000655742050775 21.99995295284162 0  -3.000648250329905 21.99992295893296 0  -2.000422855248067 21.99992388369266 0  -1.000208410156153 21.99992397119745 0  6.239623975814377e-07 21.99992329853282 0  1.000209642341257 21.9999218692465 0  2.000424036561135 21.99991961512723 0  3.000649334750791 21.999916395526 0  4.000656731602626 21.99994795459826 0  5.000649310943512 21.99997958146469 0  6.000472936167553 21.99998397630302 0  7.000308706966243 21.99998899919353 0  8.00015239950827 21.99999440801591 0  9 22 0  -9 24 0  -8.000130043540004 24.00000201457874 0  -7.000263365383884 24.00000441318918 0  -6.000403317431426 24.00000759573216 0  -5.00055339143109 24.00001199375241 0  -4.00055958552901 23.99995186116313 0  -3.000553422696048 23.99989171887974 0  -2.000361615436791 23.99989464467106 0  -1.000178891862294 23.99989599865819 0  -6.926197155696432e-07 23.99989585308793 0  1.000177445543111 23.99989421709913 0  2.000359982565245 23.99989103699448 0  3.000551467858168 23.9998861965123 0  4.000557394289261 23.99994769214773 0  5.000551104224388 24.00000924220614 0  6.000401742775865 24.00000558437852 0  7.00026238157473 24.00000309774868 0  8.000129570805337 24.00000136460217 0  9 24 0  -9 26 0  -8.000094853193731 26.00000731048389 0  -7.000192049063921 26.00001511821503 0  -6.000293974300042 26.00002393325495 0  -5.000403101211935 26.00003429106572 0  -4.000407606106723 25.99995079910201 0  -3.000403310362076 25.99986731028881 0  -2.000264060515605 25.99987169179439 0  -1.00013128508393 25.99987402228707 0  -1.764061304577558e-06 25.99987436723745 0  1.000127663861678 25.99987273926722 0  2.000260156828606 25.99986909809601 0  3.000398925231958 25.99986335099118 0  4.000402891270292 25.99994782997744 0  5.00039825331489 26.00003235044487 0  6.000290531351617 26.00002250750859 0  7.000189844194783 26.00001418229244 0  8.000093777541931 26.00000684697719 0  9 26 0  -9 28 0  -8.000050285996013 28.00001061743529 0  -7.00010180364414 28.00002179398201 0  -6.000155805715305 28.00003409959495 0  -5.0002135857097 28.00004812559185 0  -4.000216104248399 27.99994984272974 0  -3.000214002360401 27.99985157388241 0  -2.000140626787529 27.9998569407976 0  -1.000070669260832 27.99985998599894 0  -2.462310129894003e-06 27.99986077102264 0  1.000065632384028 27.99985931214835 0  2.000135249962572 27.99985557986496 0  3.000208048292933 27.99984949960151 0  4.000209767617622 27.99994829462711 0  5.000207096955526 28.00004712156531 0  6.000151163405219 28.00003335980738 0  7.000098814040185 28.00002130731619 0  8.000048822463638 28.00001037610145 0
[...]
<PointData  Scalars="f_44-1"> 
<DataArray  type="Float64"  Name="f_44-1"  format="ascii">3.7247846201657000e-04  4.5780973705561234e-05  2.2700632223326018e-05  4.6101582420727692e-05  -4.3108377291182484e-04  0.0000000000000000e+00  0.0000000000000000e+00  0.0000000000000000e+00  0.0000000000000000e+00  0.0000000000000000e+00  0.0000000000000000e+00  0.0000000000000000e+00  0.0000000000000000e+00  0.0000000000000000e+00  3.8106127402023508e-04  4.5829642342077150e-05  2.3049372849597072e-05  4.5964026857312038e-05  -4.4523896893983460e-04  1.6228468676294999e-02  1.6246034994935633e-02  1.6236992366378062e-02  1.6193269037623227e-02  1.6162625012339584e-02  0.0000000000000000e+00  0.0000000000000000e+00  0.0000000000000000e+00  0.0000000000000000e+00  0.0000000000000000e+00  0.0000000000000000e+00  0.0000000000000000e+00  0.0000000000000000e+00  0.0000000000000000e+00  1.6277666216492376e-02  1.6293997820213652e-02  1.6283422351169415e-02  1.6237666746252610e-02  1.6206090766353858e-02  3.2478803777484737e-02  3.2478398070245384e-02  3.2469192001618775e-02  3.2465342581625652e-02  3.2471291409289608e-02  0.0000000000000000e+00  0.0000000000000000e+00  0.0000000000000000e+00  0.0000000000000000e+00  0.0000000000000000e+00  0.0000000000000000e+00  0.0000000000000000e+00  0.0000000000000000e+00  0.0000000000000000e+00  3.2572355252820227e-02  3.2570645389733109e-02  3.2559889198322985e-02  3.2555359389488801e-02  3.2563549535635894e-02  4.8718462002437964e-02  4.8717610490611442e-02  4.8717515008804710e-02  4.8716917644557649e-02  4.8711317381568545e-02  0.0000000000000000e+00  0.0000000000000000e+00  0.0000000000000000e+00  0.0000000000000000e+00  0.0000000000000000e+00  0.0000000000000000e+00  0.0000000000000000e+00  0.0000000000000000e+00  0.0000000000000000e+00  4.8867410267099426e-02  4.8856966088302124e-02  4.8848421165815357e-02  4.8842972683529946e-02  4.8840846358171403e-02  6.4955811668309674e-02  6.4957234248302326e-02  6.4965655012702281e-02  6.4974181595734787e-02  6.4980998047618241e-02  0.0000000000000000e+00  0.0000000000000000e+00  0.0000000000000000e+00  0.0000000000000000e+00  0.0000000000000000e+00  0.0000000000000000e+00  0.0000000000000000e+00  0.0000000000000000e+00  0.0000000000000000e+00  6.5163385349863073e-02  6.5144762881450213e-02  6.5123100004261261e-02  6.5108196234495222e-02  6.5104343294103278e-02  8.1155333985489533e-02  8.1162078212155514e-02  8.1195743543991644e-02  8.1254949448955616e-02  8.1346117382025546e-02  0.0000000000000000e+00  1.9156768189500123e-01  1.9160589685072918e-01  1.9172408381123035e-01  1.9176736348034024e-01  1.9172397619780907e-01  1.9159190586099303e-01  1.9133835914231387e-01  0.0000000000000000e+00  8.1494728638515687e-02  8.1422919247567491e-02  8.1363929703276702e-02  8.1327484622812724e-02  8.1318971545314089e-02  9.7240671921354341e-02  9.7254764782121833e-02  9.7323079993283060e-02  9.7442098967026450e-02  9.7599364061409982e-02  0.0000000000000000e+00  1.9159357344948486e-01  1.9178506975689866e-01  1.9190260854114077e-01  1.9193361816958177e-01  1.9188770986854772e-01  1.9177291903621116e-01  1.9162223713795265e-01  0.0000000000000000e+00  9.7800872160679439e-02  9.7628479792664868e-02  9.7508862199731608e-02  9.7437091132746373e-02  9.7420863786241332e-02  1.1310060881982986e-01  1.1312459813568093e-01  1.1323949504731810e-01  1.1344490625379181e-01  1.1374329881965459e-01  0.0000000000000000e+00  1.9194734596741744e-01  1.9222158511338994e-01  1.9238396359293822e-01  1.9243476656699160e-01  1.9236997598889741e-01  1.9218979764206734e-01  1.9189080679090270e-01  0.0000000000000000e+00  1.1395496635270215e-01  1.1365844059654889e-01  1.1345098109793469e-01  1.1333119559941238e-01  1.1330464733439315e-01  1.2859501254254899e-01  1.2862951919919868e-01  1.2879279109532116e-01  1.2908661894545420e-01  1.2951821576446260e-01  0.0000000000000000e+00  1.9266882972549232e-01  1.9308552082681260e-01  1.9333002805720886e-01  1.9340681940656382e-01  1.9331748776633939e-01  1.9306063281736793e-01  1.9262675916355776e-01  0.0000000000000000e+00  1.2976658205145802e-01  1.2933301007872791e-01  1.2903551870950039e-01  1.2886724246485212e-01  1.2883027043803602e-01  1.4358186605583884e-01  1.4362498627667172e-01  1.4382694202681889e-01  1.4419058728159020e-01  1.4472728818385325e-01  0.0000000000000000e+00  1.9411167188381265e-01  1.9463359200518104e-01  1.9493915143840798e-01  1.9503688614426792e-01  1.9492965643757240e-01  1.9461501962687314e-01  1.9408125915530366e-01  0.0000000000000000e+00  1.4501493719693651e-01  1.4447324032643979e-01  1.4410436615093705e-01  1.4389779635011907e-01  1.4385258983407581e-01  1.5795013736886312e-01  1.5799798005817572e-01  1.5822017476393591e-01  1.5861950629300323e-01  1.5920898675229767e-01  0.0000000000000000e+00  1.9645716495183804e-01  1.9703249782938681e-01  1.9736889445040839e-01  1.9747773221572607e-01  1.9736236792650155e-01  1.9701966348289127e-01  1.9643711497179109e-01  0.0000000000000000e+00  1.5952700157123861e-01  1.5893256140389311e-01  1.5852945586942238e-01  1.5830480733652436e-01  1.5825576169591807e-01  1.7164520883817333e-01  1.7169274087644501e-01  1.7191189561922018e-01  1.7230454539413695e-01  1.7288312649654225e-01  0.0000000000000000e+00  1.9980024948024680e-01  2.0036619692350904e-01  2.0069667041027292e-01  2.0080438023974126e-01  2.0069252310648428e-01  2.0035770871535941e-01  1.9978876405284032e-01  0.0000000000000000e+00  1.7322439442398058e-01  1.7264175456052833e-01  1.7224788649885955e-01  1.7202923081570798e-01  1.7198158903940108e-01  1.8468262296713431e-01  1.8472456008488708e-01  1.8491656872404877e-01  1.8525913521342155e-01  1.8576234971566738e-01  0.0000000000000000e+00  2.0412372086506109e-01  2.0461679354738632e-01  2.0490409365573453e-01  2.0499818714206910e-01  2.0490161439068208e-01  2.0461115887581524e-01  2.0411852860239307e-01  0.0000000000000000e+00  1.8611987271752337e-01  1.8561398730160689e-01  1.8527313164227166e-01  1.8508469410525102e-01  1.8504373668181534e-01  1.9714994435487976e-01  1.9718152452875212e-01  1.9732489814146537e-01  1.9757898993414905e-01  1.9795025842540373e-01  0.0000000000000000e+00  2.0929928528008077e-01  2.0966390882210056e-01  2.0987551032214832e-01  2.0994504925955629e-01  2.0987410262574693e-01  2.0966000575343444e-01  2.0929837870199641e-01  0.0000000000000000e+00  1.9831803739470710e-01  1.9794548679848187e-01  1.9769573203254151e-01  1.9755855895709279e-01  1.9752886911505135e-01  2.0919827740406699e-01  2.0921588094756502e-01  2.0929446995634116e-01  2.0943147324857253e-01  2.0962895296996820e-01  0.0000000000000000e+00  2.1510298840563957e-01  2.1529806923286537e-01  2.1541001079726588e-01  2.1544690292620414e-01  2.1540919573087178e-01  2.1529507701063613e-01  2.1510456747194656e-01  0.0000000000000000e+00  2.1000217227962875e-01  2.0980440788651161e-01  2.0967353731834268e-01  2.0960290645548463e-01  2.0958779324089644e-01  2.2102572772217902e-01  2.2102731123301841e-01  2.2103220456037945e-01  2.2103658954132191e-01  2.2103791671265768e-01  0.0000000000000000e+00  2.2124062347897980e-01  2.2124412490804196e-01  2.2124368007843764e-01  2.2124356126426067e-01  2.2124306284556425e-01  2.2124143334583835e-01  2.2124304453206614e-01  0.0000000000000000e+00  2.2141262435102918e-01  2.2141138816503955e-01  2.2141378009397622e-01  2.2141746873247131e-01  2.2141858422307542e-01  2.3285531230306991e-01  2.3284064221133513e-01  2.3277117379720494e-01  2.3264222446163221e-01  2.3244694337620714e-01  0.0000000000000000e+00  2.2738073279842808e-01  2.2719203052690504e-01  2.2707904841675533e-01  2.2704171613535079e-01  2.2707826467009373e-01  2.2718910220753616e-01  2.2738240788123876e-01  0.0000000000000000e+00  2.3281952354277272e-01  2.3301456840295778e-01  2.3314967856678590e-01  2.3322713105158660e-01  2.3324429054155363e-01  2.4491006400193890e-01  2.4488074087564327e-01  2.4474456891672783e-01  2.4449647483914325e-01  2.4412609197703114e-01  0.0000000000000000e+00  2.3319148799461070e-01  2.3283141350078831e-01  2.3261829529547154e-01  2.3254768193652645e-01  2.3261694870128288e-01  2.3282763712368199e-01  2.3319077419560982e-01  0.0000000000000000e+00  2.4449264481100413e-01  2.4486184080431186e-01  2.4511432905337818e-01  2.4525675492879129e-01  2.4528796752017157e-01  2.5738813753836914e-01  2.5734741142866113e-01  2.5715967195404560e-01  2.5681998591865612e-01  2.5631565098026782e-01  0.0000000000000000e+00  2.3837770884006571e-01  2.3788627164820728e-01  2.3759656959969391e-01  2.3750026881808162e-01  2.3759418373684449e-01  2.3788083125323772e-01  2.3837280853131462e-01  0.0000000000000000e+00  2.5667146647662226e-01  2.5717327007516072e-01  2.5751475141438457e-01  2.5770614307550416e-01  2.5774784858082150e-01  2.7044068895279794e-01  2.7039308002812279e-01  2.7017465946394181e-01  2.6978120326392857e-01  2.6919913167237192e-01  0.0000000000000000e+00  2.4271420285571896e-01  2.4214607484933914e-01  2.4181177569819248e-01  2.4170012452164266e-01  2.4180775296971829e-01  2.4213784301106067e-01  2.4270310138670390e-01  0.0000000000000000e+00  2.6953837315420726e-01  2.7011655849707639e-01  2.7050890504663860e-01  2.7072793121559796e-01  2.7077543314955688e-01  2.8415519483662960e-01  2.8410592839005039e-01  2.8388090198793237e-01  2.8347719624614098e-01  2.8288197655042119e-01  0.0000000000000000e+00  2.4607165630771496e-01  2.4548960338420606e-01  2.4514721104092718e-01  2.4503199457381411e-01  2.4514083327561925e-01  2.4547707523950166e-01  2.4605206708779617e-01  0.0000000000000000e+00  2.8319785022294702e-01  2.8378829951843398e-01  2.8418835297127903e-01  2.8441104617407448e-01  2.8445911406059909e-01  2.9854667590237843e-01  2.9850096845476354e-01  2.9829331941158271e-01  2.9792267679402845e-01  2.9737860769378238e-01  0.0000000000000000e+00  2.4843165558363775e-01  2.4789815568787946e-01  2.4758368130398944e-01  2.4747655463228735e-01  2.4757434697525924e-01  2.4787991266686019e-01  2.4840174496391854e-01  0.0000000000000000e+00  2.9766424418387588e-01  2.9820349329198015e-01  2.9856901683822107e-01  2.9877216286154507e-01  2.9881578843076745e-01  3.1355869809856940e-01  3.1352097833404308e-01  3.1335097743136259e-01  3.1305063220177215e-01  3.1261315864930334e-01  0.0000000000000000e+00  2.4988856854055899e-01  2.4945478783078839e-01  2.4919799201055859e-01  2.4910872601587614e-01  2.4918560494789044e-01  2.4943022028163397e-01  2.4984699378682354e-01  0.0000000000000000e+00  3.1285984496510238e-01  3.1329546948776305e-01  3.1359222963812233e-01  3.1375730235192856e-01  3.1379256036064057e-01  3.2907716314239754e-01  3.2904973168579194e-01  3.2892784109902568e-01  3.2871687738336636e-01  3.2841546729334059e-01  0.0000000000000000e+00  2.5062559381468391e-01  2.5032657036522266e-01  2.5014636740468166e-01  2.5008159366231802e-01  2.5013246842939213e-01  2.5029500191066040e-01  2.5056948362549314e-01  0.0000000000000000e+00  3.2862587281109013e-01  3.2892924858683426e-01  3.2913819177550330e-01  3.2925521224395260e-01  3.2928008388811192e-01  3.4495803193159874e-01  3.4494097502414445e-01  3.4486719298638208e-01  3.4474425905109607e-01  3.4456729121046709e-01  0.0000000000000000e+00  2.5089453576048881e-01  2.5074355938953186e-01  2.5062870227365175e-01  2.5058277971556936e-01  2.5061381821187162e-01  2.5073132118265518e-01  2.5092279035499238e-01  0.0000000000000000e+00  3.4476797987996227e-01  3.4492987323684982e-01  3.4505219588892638e-01  3.4512248943551832e-01  3.4513740948647953e-01  3.6106126193088472e-01  3.6105214986269835e-01  3.6101420882044039e-01  3.6095281363155507e-01  3.6087752105031590e-01  0.0000000000000000e+00  2.5117704757543668e-01  2.5092406739566020e-01  2.5079233860480449e-01  2.5074889542073620e-01  2.5079199698616661e-01  2.5090960152464492e-01  2.5094836918522978e-01  0.0000000000000000e+00  3.6102663192088086e-01  3.6112057481905857e-01  3.6118200363611752e-01  3.6121706211972571e-01  3.6122439988674199e-01  3.7728056880384825e-01  3.7727638130054453e-01  3.7726061586344722e-01  3.7723769525807960e-01  3.7721766907491749e-01  0.0000000000000000e+00  0.0000000000000000e+00  0.0000000000000000e+00  0.0000000000000000e+00  0.0000000000000000e+00  0.0000000000000000e+00  0.0000000000000000e+00  0.0000000000000000e+00  0.0000000000000000e+00  3.7739933509680879e-01  3.7740790203886421e-01  3.7741779564729339e-01  3.7742706608892040e-01  3.7742884048299730e-01  3.9355095071053642e-01  3.9354852545994923e-01  3.9354261107993871e-01  3.9353335767571662e-01  3.9352202949302367e-01  0.0000000000000000e+00  0.0000000000000000e+00  0.0000000000000000e+00  0.0000000000000000e+00  0.0000000000000000e+00  0.0000000000000000e+00  0.0000000000000000e+00  0.0000000000000000e+00  0.0000000000000000e+00  3.9367861757866945e-01  3.9367362288975893e-01  3.9367361231082526e-01  3.9367394480404572e-01  3.9367323572030205e-01  4.0983582390943057e-01  4.0984415421651771e-01  4.0983961961785986e-01  4.0982848746007555e-01  4.0982631037035633e-01  0.0000000000000000e+00  0.0000000000000000e+00  0.0000000000000000e+00  0.0000000000000000e+00  0.0000000000000000e+00  0.0000000000000000e+00  0.0000000000000000e+00  0.0000000000000000e+00  0.0000000000000000e+00  4.0992731972900337e-01  4.0993374988931747e-01  4.0993042295253329e-01  4.0992135512170408e-01  4.0992097570405406e-01  4.2620169063132313e-01  4.2617122725582407e-01  4.2612535115878653e-01  4.2611477485460220e-01  4.2613136836100618e-01  0.0000000000000000e+00  0.0000000000000000e+00  0.0000000000000000e+00  0.0000000000000000e+00  0.0000000000000000e+00  0.0000000000000000e+00  0.0000000000000000e+00  0.0000000000000000e+00  0.0000000000000000e+00  4.2624431647079097e-01  4.2621516971842754e-01  4.2617204579881951e-01  4.2616357201346572e-01  4.2618190860860850e-01  4.4286939292944710e-01  4.4237191541813714e-01  4.4239387303623579e-01  4.4237169837179308e-01  4.4203253695658817e-01  0.0000000000000000e+00  0.0000000000000000e+00  0.0000000000000000e+00  0.0000000000000000e+00  0.0000000000000000e+00  0.0000000000000000e+00  0.0000000000000000e+00  0.0000000000000000e+00  0.0000000000000000e+00  4.4285106089905552e-01  4.4237179599556614e-01  4.4239431532363954e-01  4.4237172910303013e-01  4.4204315076326922e-01  </DataArray> 
</PointData> 
</Piece>
</UnstructuredGrid>
</VTKFile>