<?xml version="1.0"?>
<VTKFile type="UnstructuredGrid"  version="0.1"  >
<UnstructuredGrid>
<Piece  NumberOfPoints="589" NumberOfCells="1080">
<Points>
<DataArray  type="Float64"  NumberOfComponents="3"  format="ascii">-9 0 0  -8 0 0  -7 0 0  -6 0 0  -5 0 0  -4 0 0  -3 0 0  -2 0 0  -1 0 0  0 0 0  1 0 0  2 0 0  3 0 0  4 0 0  5 0 0  6 0 0  7 0 0  8 0 0  9 0 0  -9 2 0  -8.000007760706788 1.999987981570678 0  -7.000016290103335 1.999977474947087 0  -6.000027422394377 1.999969711447818 0  -5.000045372025318 1.999965242600643 0  -4.000026520426796 1.999973914895301 0  -3.000007154526803 1.999982311200523 0  -1.999997781784572 1.999990262909513 0  -0.9999963752353279 1.999996546015759 0  6.498745210565873e-08 1.999999279543266 0  0.9999961862375839 1.999997302325459 0  1.999996516698806 1.999991066474722 0  3.000004109780042 1.999983414154821 0  4.000019942342437 1.999975183112745 0  5.000042976727498 1.99997166688985 0  6.000026051505984 1.999972905145661 0  7.000015550703622 1.999979122194416 0  8.000007442021092 1.999988704143055 0  9 2 0  -9.000000000004983 4 0  -8.000012446476731 3.999969916749741 0  -7.000022168686557 3.999943978012436 0  -6.000027575344601 3.999926244623777 0  -5.000029003868442 3.999920590174094 0  -4.000001310143351 3.999924592415921 0  -2.999982780981337 3.999948473829551 0  -1.999978086245839 3.999979621592492 0  -0.9999853981883802 4.000004686594719 0  7.671098276380442e-07 4.000014725894973 0  0.9999866700787046 4.000006628524684 0  1.999978482869735 3.999984971173129 0  2.999982396535283 3.999955650504102 0  4.000000315343595 3.999926053269648 0  5.000027733266491 3.999915785643531 0  6.000026405135318 3.999925895715436 0  7.000021532680161 3.999944785740741 0  8.000012217015957 3.9999705536354 0  9 4 0  -9 6 0  -8.000028028258665 5.999935278026089 0  -7.000045309397405 5.999877663534508 0  -6.000043640793496 5.999834465782714 0  -5.000020662726349 5.99981270124567 0  -3.99996627526525 5.999848114921298 0  -2.999941589799753 5.999922359798149 0  -1.99995145912274 6.000000246968173 0  -0.9999759891138529 6.000043581850957 0  -8.756157772664968e-07 6.000052203320629 0  0.9999766792519866 6.000037952491756 0  1.999959530312686 5.999998645192322 0  2.999953089752185 5.99993222389632 0  3.999966075599342 5.999863236268669 0  5.000012924926335 5.999828749585519 0  6.000040936005188 5.999843770134116 0  7.000045286303434 5.999882942030322 0  8.00002859567965 5.999937693263741 0  9 6 0  -9 8 0  -8.000086586593149 7.99987222866626 0  -7.000144241681202 7.999753702872171 0  -6.000144939597209 7.99965697469377 0  -5.000064685055253 7.999602725421457 0  -3.999959289916521 7.999766848467561 0  -2.999978529034358 7.999959800558737 0  -2.000017959422838 8.000053976295376 0  -1.000021330144143 8.000064892302964 0  2.137476057980531e-06 8.000068112988716 0  1.000019547224211 8.00007766842824 0  2.000011965786519 8.00003782077907 0  2.999965534885943 7.999970064789472 0  3.99994965819689 7.999802358664134 0  5.000054022127498 7.999613072580205 0  6.000150094966742 7.999665068284256 0  7.000153186211704 7.999758803306964 0  8.000092579588339 7.999874627790303 0  9 8 0  -9 10 0  -8.000260773578445 9.999772275607674 0  -7.000470897147564 9.999542673319468 0  -6.000569947902976 9.999309768699915 0  -5.000473743238089 9.999073221754731 0  -4.000306714915811 9.999603161770469 0  -3.00033371281366 10.00005887879172 0  -2.000265815186589 9.999980880756986 0  -1.000119035339095 9.999955839959391 0  -1.068632143944486e-05 9.999949708447309 0  1.000096991147666 9.999950111331202 0  2.00024071396839 9.999946972597275 0  3.000366739386713 10.00011258480203 0  4.000350205713288 9.999674624636627 0  5.000542286680318 9.99909659854826 0  6.000630967077266 9.999319574071752 0  7.000515742707101 9.999546398973667 0  8.000284366962724 9.999773429896246 0  9 10 0  -9 12 0  -8.00063710941108 11.99968000165717 0  -7.001241106555727 11.9993451358383 0  -6.00177455266905 11.99897762539733 0  -5.002190944029631 11.99855269299459 0  -4.002105609845568 11.99951871001877 0  -3.002182431362112 12.00047495664064 0  -2.001489609352992 12.00036053266864 0  -1.000720229478515 12.0002993228765 0  7.77385983527984e-05 12.00028874037165 0  1.000882759815898 12.00033090508029 0  2.001676420857413 12.00043767703166 0  3.002422140822873 12.00063861398018 0  4.002337933858731 11.99958578732782 0  5.002393984176037 11.99852409591838 0  6.001926403653844 11.99895906373417 0  7.001342376548763 11.99933340467935 0  8.000687795909279 11.99967422036066 0  9 12 0  -9 14 0  -8.001144963584531 13.99964738696186 0  -7.002292029133304 13.99927850474239 0  -6.003444824492489 13.99887564914384 0  -5.004610855473446 13.99841829924119 0  -4.004623128065734 13.99954664571768 0  -3.004629692510387 14.00068917706835 0  -2.003021394749018 14.00052767759822 0  -1.001436530846121 14.00044060653402 0  0.0001382058863691625 14.00041707135528 0  1.001715390922955 14.0004536270736 0  2.003306561276926 14.0005522369061 0  3.004920594400874 14.00071822242995 0  4.004932018496768 13.99954432673707 0  5.004940071972516 13.99837752403959 0  6.003685308294135 13.99884182042026 0  7.002449865610828 13.99925496625618 0  8.001223237744099 13.99963540443076 0  9 14 0  -9 16 0  -8.001643141016501 15.99967997501681 0  -7.003317940629258 15.99934803440689 0  -6.005058784087563 15.99899205264932 0  -5.006905602046555 15.99859967089499 0  -4.006971847580038 15.99956040740731 0  -3.00690910237888 16.00051596453091 0  -2.004462752017375 16.0003981402979 0  -1.002113753902233 16.00032857947968 0  0.0001889732686645697 16.00030579348454 0  1.002493678845209 16.00032887789866 0  2.004848586513786 16.00039804061236 0  3.007304971469008 16.00051435732728 0  4.007374552332034 15.99951369439923 0  5.007313590020856 15.99851219965943 0  6.005363000448197 15.99892970209745 0  7.003519711335898 15.9993077241638 0  8.001743694045709 15.99966015193249 0  9 16 0  -9 18 0  -8.002013346869189 17.9997602587929 0  -7.004077273703529 17.99951386208387 0  -6.006244983691567 17.99925427230083 0  -5.008574894330935 17.99897521007305 0  -4.00867488590491 17.99956328391375 0  -3.008578215576601 18.00015050465881 0  -2.005518953598865 18.00007642485927 0  -1.002607866515293 18.00003033924147 0  0.000231785982953134 18.00001191130297 0  1.003073022519397 18.00002067521458 0  2.005988759572488 18.00005605378022 0  3.00905538821848 18.00011722237963 0  4.009157491770439 17.99949089317325 0  5.009060211595179 17.99886628236502 0  6.00660698969329 17.99917584372666 0  7.004317638249327 17.99946306800539 0  8.002133235661566 17.99973529543009 0  9 18 0  -9 20 0  -8.00217999339212 19.99986714462149 0  -7.004419015689288 19.99973249642309 0  -6.006778348526844 19.99959445862136 0  -5.009323777489738 19.99945181699703 0  -4.009437877816561 19.99956305196597 0  -3.009324849080692 19.9996733190106 0  -2.005987271954627 19.99964336457392 0  -1.002818511764296 19.99962208838963 0  0.0002681974660359417 19.99960991363594 0  1.003356485284473 19.99960664593518 0  2.006529959641887 19.99961149387064 0  3.009875333364675 19.99962301470479 0  4.009990926082048 19.99947967012779 0  5.009876909943857 19.99933745999991 0  6.007190855584186 19.99951143226001 0  7.004692906682665 19.99967844826567 0  8.002316605784236 19.99984051092654 0  8.999999999985047 19.9999999999934 0  -9 22 0  -8.002109373835992 21.99998117990005 0  -7.004277062998405 21.99996468707572 0  -6.006563218732121 21.99995307025713 0  -5.009031644921195 21.99994932617487 0  -4.009143358169757 21.99955828378642 0  -3.00903223765464 21.99916613806384 0  -2.005785222767821 21.9991758041595 0  -1.002703250104697 21.99917766501045 0  0.0002983093187077506 21.99917252190588 0  1.003301529357156 21.99916037189571 0  2.006388486294237 21.99914042290949 0  3.009643819982265 21.99911107879515 0  4.009755407157404 21.99947622470568 0  5.009641268433213 21.99984194246773 0  6.007017833054713 21.99987483137041 0  7.00457889590286 21.99991361637721 0  8.002259913270043 21.99995597110804 0  9 22 0  -9 24 0  -8.00180430182402 24.00008590976782 0  -7.003658725059053 24.00017737701413 0  -6.005614815178459 24.00028018798669 0  -5.007726862819176 24.00040060371065 0  -4.007823147473925 23.99954910223677 0  -3.007728321509573 23.99869656903597 0  -2.004927777853562 23.99873927565393 0  -1.002268532575385 23.99876107999463 0  0.0003219042013660846 23.99876297946417 0  1.002914087487692 23.9987451030034 0  2.005578586068134 23.99870671537836 0  3.008387935511252 23.99864621121841 0  4.008481520005264 23.99947842085939 0  5.008380945755888 24.0003108753134 0  6.006102539085277 24.00021461271526 0  7.003982518940615 24.00013447932271 0  8.001965785068805 24.00006470708972 0  9 24 0  -9 26 0  -8.00129737719743 26.00016843708396 0  -7.002631028054204 26.00034471101203 0  -6.004038240017428 26.00053689184492 0  -5.005558108297374 26.00075353464371 0  -4.005628994570674 25.99953602080956 0  -3.005561305500555 25.99831767073976 0  -2.003509741259142 25.99838592084702 0  -1.001560668801387 25.99842368258716 0  0.0003387135409184253 25.99843210442089 0  1.002239894265883 25.99841143182502 0  2.004194378658537 25.9983610083274 0  3.006255017908197 25.99827927327969 0  4.006320218654706 25.99948429404566 0  5.006243682438454 26.00068932653308 0  6.004549461811484 26.00048986978756 0  7.002970429767937 26.00031390247461 0  8.001466646577232 26.00015319432019 0  9 26 0  -9 28 0  -8.000643764967212 28.00021964759815 0  -7.00130618893871 28.00044843869885 0  -6.0020065120176 28.00069575443101 0  -5.002764834314619 28.00097145949084 0  -4.002803471286215 27.99952022224027 0  -3.00277001518902 27.99806849209605 0  -2.001686260871079 27.99815406134108 0  -1.000656091943716 27.99820318114207 0  0.0003485297304388026 27.99821713560445 0  1.001354957459212 27.99819628198795 0  2.002390557750336 27.99814005118519 0  3.003483409060833 27.99804694616943 0  4.003513599133111 27.99949250324517 0  5.003468493748728 28.00093798684385 0  6.002531280934575 28.00067119226889 0  7.001654616680049 28.00043232125956 
[...]
<PointData  Scalars="f_44-1"> 
<DataArray  type="Float64"  Name="f_44-1"  format="ascii">1.4194801793584034e-03  4.6868404930444684e-07  4.5011887116152205e-05  4.4833003690229738e-05  -1.2357958179249791e-03  0.0000000000000000e+00  0.0000000000000000e+00  0.0000000000000000e+00  0.0000000000000000e+00  0.0000000000000000e+00  0.0000000000000000e+00  0.0000000000000000e+00  0.0000000000000000e+00  0.0000000000000000e+00  1.4247292468848646e-03  2.6502672258577101e-06  4.7363247489798702e-05  3.7495276159283252e-05  -1.2458818779631075e-03  8.8891234373196834e-02  8.8906536521321577e-02  8.8724693539212446e-02  8.8435957498285409e-02  8.8309053436652130e-02  0.0000000000000000e+00  0.0000000000000000e+00  0.0000000000000000e+00  0.0000000000000000e+00  0.0000000000000000e+00  0.0000000000000000e+00  0.0000000000000000e+00  0.0000000000000000e+00  0.0000000000000000e+00  8.8778914726022284e-02  8.8785733071390233e-02  8.8595462624991142e-02  8.8305128422617216e-02  8.8174827950845927e-02  1.7739305229851662e-01  1.7737254218269077e-01  1.7732681182392604e-01  1.7728667514666502e-01  1.7730555291035308e-01  0.0000000000000000e+00  0.0000000000000000e+00  0.0000000000000000e+00  0.0000000000000000e+00  0.0000000000000000e+00  0.0000000000000000e+00  0.0000000000000000e+00  0.0000000000000000e+00  0.0000000000000000e+00  1.7712255522551448e-01  1.7712838185886456e-01  1.7710359935103967e-01  1.7706606472771594e-01  1.7707665748261797e-01  2.6603346686482882e-01  2.6603554334523793e-01  2.6604619393417400e-01  2.6606146807655978e-01  2.6605640582221035e-01  0.0000000000000000e+00  0.0000000000000000e+00  0.0000000000000000e+00  0.0000000000000000e+00  0.0000000000000000e+00  0.0000000000000000e+00  0.0000000000000000e+00  0.0000000000000000e+00  0.0000000000000000e+00  2.6566520359955548e-01  2.6565960633366315e-01  2.6566761514622611e-01  2.6567629097425571e-01  2.6568448086787211e-01  3.5472045100295613e-01  3.5470465421351260e-01  3.5464475299362191e-01  3.5451532309227152e-01  3.5443298220903646e-01  0.0000000000000000e+00  0.0000000000000000e+00  0.0000000000000000e+00  0.0000000000000000e+00  0.0000000000000000e+00  0.0000000000000000e+00  0.0000000000000000e+00  0.0000000000000000e+00  0.0000000000000000e+00  3.5413980040319687e-01  3.5422427681383611e-01  3.5426137555255671e-01  3.5428468899674387e-01  3.5429849637579502e-01  4.4351818523966152e-01  4.4350246879938254e-01  4.4346066350885616e-01  4.4343739928977915e-01  4.4341945850429582e-01  0.0000000000000000e+00  1.3935061631460099e+00  1.3933687417174396e+00  1.3933835331767108e+00  1.3933338693232034e+00  1.3933982457777867e+00  1.3934532077691899e+00  1.3928421192698019e+00  0.0000000000000000e+00  4.4283148594379845e-01  4.4287425228878213e-01  4.4290342988806586e-01  4.4294018436869975e-01  4.4295913440959012e-01  5.3243033748425195e-01  5.3240445772497969e-01  5.3232261626935895e-01  5.3220057115499830e-01  5.3196356960900559e-01  0.0000000000000000e+00  1.3934716801024878e+00  1.3933136721649249e+00  1.3932165428438181e+00  1.3931728282929134e+00  1.3932241458533707e+00  1.3933172336177524e+00  1.3936488102158147e+00  0.0000000000000000e+00  5.3128165758208623e-01  5.3145875857187019e-01  5.3160779812300774e-01  5.3168956216808139e-01  5.3171986983075714e-01  6.2157800371054106e-01  6.2153892972214098e-01  6.2139573446316032e-01  6.2115513254707622e-01  6.2077421991155823e-01  0.0000000000000000e+00  1.3933577299974824e+00  1.3929892688537302e+00  1.3927493424713768e+00  1.3926764784518497e+00  1.3927500531648902e+00  1.3929683821491530e+00  1.3933188600986743e+00  0.0000000000000000e+00  6.1985217554368466e-01  6.2024996229720175e-01  6.2051396423821947e-01  6.2067326471976969e-01  6.2072040864269762e-01  7.1114912647031325e-01  7.1109707309583425e-01  7.1088793225520386e-01  7.1052169318212666e-01  7.0996115898553658e-01  0.0000000000000000e+00  1.3925345167890215e+00  1.3920092369688624e+00  1.3916979108172007e+00  1.3915978515344138e+00  1.3917031100223674e+00  1.3920155688147033e+00  1.3925620574595561e+00  0.0000000000000000e+00  7.0886666539944010e-01  7.0946747426691525e-01  7.0987626342364218e-01  7.1010876994987726e-01  7.1017034680324231e-01  8.0134160950358335e-01  8.0128045637467082e-01  8.0102023489083951e-01  8.0055790791427228e-01  7.9986828607113170e-01  0.0000000000000000e+00  1.3908613040530786e+00  1.3902051059115594e+00  1.3898169807395386e+00  1.3896912728095769e+00  1.3898235011812998e+00  1.3902159470198334e+00  1.3908882211765490e+00  0.0000000000000000e+00  7.9870873387691688e-01  7.9943561002312191e-01  7.9993237704412945e-01  8.0021409284205058e-01  8.0028442326461979e-01  8.9230816364934085e-01  8.9224416607253909e-01  8.9195988838806151e-01  8.9145209932112657e-01  8.9070912122135126e-01  0.0000000000000000e+00  1.3880432740963720e+00  1.3873258315143411e+00  1.3869068993609079e+00  1.3867728724673203e+00  1.3869190488948309e+00  1.3873495912214007e+00  1.3880808623858087e+00  0.0000000000000000e+00  8.8953408530462386e-01  8.9031292209632862e-01  8.9084599637586126e-01  8.9114626025757648e-01  8.9121803804304300e-01  9.8412084172954417e-01  9.8406099316710649e-01  9.8378428377233329e-01  9.8328869592669010e-01  9.8257562721841363e-01  0.0000000000000000e+00  1.3839854648910479e+00  1.3832851655618881e+00  1.3828800062367035e+00  1.3827513402128886e+00  1.3828960599008904e+00  1.3833193828239037e+00  1.3840324611052479e+00  0.0000000000000000e+00  9.8142837134148087e-01  9.8217333692820930e-01  9.8268428158802823e-01  9.8297070300308709e-01  9.8303691587885467e-01  1.0767566997775118e+00  1.0767075618337869e+00  1.0764693915047545e+00  1.0760420438918445e+00  1.0754388431405371e+00  0.0000000000000000e+00  1.3787153593269061e+00  1.3781095398483378e+00  1.3777628807783557e+00  1.3776543734436970e+00  1.3777825312661702e+00  1.3781528532712914e+00  1.3787700650214627e+00  0.0000000000000000e+00  1.0743515238768226e+00  1.0749811453952487e+00  1.0754137684783511e+00  1.0756552203794534e+00  1.0757092566775930e+00  1.1700994007866798e+00  1.1700662604574559e+00  1.1698929893088055e+00  1.1695815332261170e+00  1.1691553790920097e+00  0.0000000000000000e+00  1.3723958662635523e+00  1.3719514520106939e+00  1.3717017897406196e+00  1.3716259518847578e+00  1.3717241615613422e+00  1.3720016533771058e+00  1.3724563685926265e+00  0.0000000000000000e+00  1.1681480319298785e+00  1.1685946218418934e+00  1.1689023259656250e+00  1.1690730073705371e+00  1.1691096454078413e+00  1.2639531168144451e+00  1.2639393756879145e+00  1.2638498167530585e+00  1.2636883467918973e+00  1.2634861860044797e+00  0.0000000000000000e+00  1.3653049310457153e+00  1.3650707863835576e+00  1.3649458626414017e+00  1.3649116059239785e+00  1.3649698798998537e+00  1.3651251729590674e+00  1.3653688177979033e+00  0.0000000000000000e+00  1.2625681306713563e+00  1.2627847599843061e+00  1.2629351903158141e+00  1.2630174138758572e+00  1.2630334517763351e+00  1.3580653394492008e+00  1.3580721772075510e+00  1.3580756954412045e+00  1.3580814131209069e+00  1.3581253475110477e+00  0.0000000000000000e+00  1.3578044456497060e+00  1.3578063307754524e+00  1.3578202474432202e+00  1.3578319452976066e+00  1.3578447181286584e+00  1.3578619181278726e+00  1.3578690756642215e+00  0.0000000000000000e+00  1.3572964736591449e+00  1.3572615664309904e+00  1.3572397825153169e+00  1.3572256833196865e+00  1.3572202593209630e+00  1.4521554440523783e+00  1.4521817232713961e+00  1.4522773898693939e+00  1.4524491093754464e+00  1.4527343716167276e+00  0.0000000000000000e+00  1.3503011472027384e+00  1.3505391901225614e+00  1.3506909696816660e+00  1.3507479946696872e+00  1.3507146653345401e+00  1.3505929085848396e+00  1.3503638407098704e+00  0.0000000000000000e+00  1.4519871442658396e+00  1.4517063278833786e+00  1.4515160551674160e+00  1.4514082360245368e+00  1.4513828693842539e+00  1.5459455587149544e+00  1.5459880215474808e+00  1.5461648764868958e+00  1.5464834188015295e+00  1.5469790313264491e+00  0.0000000000000000e+00  1.3432029034326884e+00  1.3436516320499021e+00  1.3439253158086011e+00  1.3440220999308929e+00  1.3439470705831538e+00  1.3437005463485121e+00  1.3432611359511475e+00  0.0000000000000000e+00  1.5463007759766345e+00  1.5458060504007620e+00  1.5454690718553030e+00  1.5452801893623342e+00  1.5452385588521866e+00  1.6391910454359380e+00  1.6392446752244700e+00  1.6394828949785634e+00  1.6399130512733457e+00  1.6405649948176098e+00  0.0000000000000000e+00  1.3368745142504794e+00  1.3374854569156660e+00  1.3378517244164534e+00  1.3379783141297417e+00  1.3378705078909543e+00  1.3375269609812950e+00  1.3369261005132631e+00  0.0000000000000000e+00  1.6399404264614670e+00  1.6392867935789186e+00  1.6388405511153257e+00  1.6385918522907779e+00  1.6385393430229154e+00  1.7317054613335501e+00  1.7317640981143385e+00  1.7320371975562188e+00  1.7325320690867239e+00  1.7332693060377704e+00  0.0000000000000000e+00  1.3315972988560614e+00  1.3323041008918923e+00  1.3327233100249500e+00  1.3328663991098579e+00  1.3327383133377997e+00  1.3323361211639639e+00  1.3316406268450305e+00  0.0000000000000000e+00  1.7326834551996975e+00  1.7319428091178402e+00  1.7314361365788293e+00  1.7311551207179867e+00  1.7310981771359697e+00  1.8233840230649989e+00  1.8234410187708063e+00  1.8237191843621374e+00  1.8242252364647686e+00  1.8249678359625250e+00  0.0000000000000000e+00  1.3275370935530730e+00  1.3282624908382066e+00  1.3286891651254353e+00  1.3288337763412827e+00  1.3287001804288077e+00  1.3282838405616786e+00  1.3275707968773733e+00  0.0000000000000000e+00  1.8244054275804884e+00  1.8236578466559243e+00  1.8231459855334891e+00  1.8228630333596421e+00  1.8228083360931373e+00  1.9142040100272755e+00  1.9142533403662711e+00  1.9145080654057076e+00  1.9149732288387626e+00  1.9156414453562096e+00  0.0000000000000000e+00  1.3247223436726887e+00  1.3253896144443238e+00  1.3257788111513686e+00  1.3259096428410453e+00  1.3257841297861956e+00  1.3253979644801821e+00  1.3247454770174845e+00  0.0000000000000000e+00  1.9150906359118056e+00  1.9144201073778213e+00  1.9139554475028380e+00  1.9136997557046374e+00  1.9136531143383175e+00  2.0042423917404864e+00  2.0042822961490039e+00  2.0044866687340614e+00  2.0048566735381330e+00  2.0053755706677476e+00  0.0000000000000000e+00  1.3230451341541318e+00  1.3235879386759393e+00  1.3238980053446312e+00  1.3240021732697009e+00  1.3239021854928923e+00  1.3235920006737472e+00  1.3230692183985153e+00  0.0000000000000000e+00  2.0048656729342627e+00  2.0043159707100413e+00  2.0039433504946444e+00  2.0037384413687827e+00  2.0037042257162803e+00  2.0936258114418913e+00  2.0936485697928289e+00  2.0937931131312721e+00  2.0940891587479515e+00  2.0944820901996404e+00  0.0000000000000000e+00  1.3222880322636439e+00  1.3226359672028654e+00  1.3228529542823753e+00  1.3229257081719226e+00  1.3228523601634630e+00  1.3226121175553827e+00  1.3222450311559306e+00  0.0000000000000000e+00  2.0938404937635022e+00  2.0935181533000948e+00  2.0932668759406323e+00  2.0931280889189017e+00  2.0931071371994232e+00  2.1825420542975977e+00  2.1825585874430704e+00  2.1826547947427515e+00  2.1828159360279416e+00  2.1829501092314030e+00  0.0000000000000000e+00  1.3219582396510501e+00  1.3222897301623562e+00  1.3223823232522018e+00  1.3224331511055287e+00  1.3223891181656284e+00  1.3222918355412652e+00  1.3221330714505826e+00  0.0000000000000000e+00  2.1825374728076317e+00  2.1822760565891191e+00  2.1821377447002521e+00  2.1820620738789294e+00  2.1820548792974255e+00  2.2711935399111529e+00  2.2711899218877827e+00  2.2712131331733825e+00  2.2712150053704550e+00  2.2712545383158078e+00  0.0000000000000000e+00  1.3227686083429442e+00  1.3221565047236723e+00  1.3222114486959069e+00  1.3222752759150633e+00  1.3222258943100058e+00  1.3222406203747208e+00  1.3221041602604917e+00  0.0000000000000000e+00  2.2706605505218787e+00  2.2707467309927045e+00  2.2707556020107327e+00  2.2707526219415213e+00  2.2707524559279002e+00  2.3596984809258954e+00  2.3597213178466663e+00  2.3597151314896583e+00  2.3597153339332602e+00  2.3597535437798962e+00  0.0000000000000000e+00  0.0000000000000000e+00  0.0000000000000000e+00  0.0000000000000000e+00  0.0000000000000000e+00  0.0000000000000000e+00  0.0000000000000000e+00  0.0000000000000000e+00  0.0000000000000000e+00  2.3593014213203660e+00  2.3593399547684473e+00  2.3593548418352048e+00  2.3593719954838051e+00  2.3593973089952569e+00  2.4483859271870778e+00  2.4483465697294120e+00  2.4483512465034178e+00  2.4483686118465839e+00  2.4483283833342715e+00  0.0000000000000000e+00  0.0000000000000000e+00  0.0000000000000000e+00  0.0000000000000000e+00  0.0000000000000000e+00  0.0000000000000000e+00  0.0000000000000000e+00  0.0000000000000000e+00  0.0000000000000000e+00  2.4481500147530046e+00  2.4481007862614521e+00  2.4481155330349358e+00  2.4481466929700959e+00  2.4481257513587416e+00  2.5366149604307378e+00  2.5365889257250100e+00  2.5366256866844274e+00  2.5365554460592983e+00  2.5364941186472127e+00  0.0000000000000000e+00  0.0000000000000000e+00  0.0000000000000000e+00  0.0000000000000000e+00  0.0000000000000000e+00  0.0000000000000000e+00  0.0000000000000000e+00  0.0000000000000000e+00  0.0000000000000000e+00  2.5364690761520752e+00  2.5364495549351820e+00  2.5364863287332962e+00  2.5364212975130243e+00  2.5363697074962794e+00  2.6248888137917983e+00  2.6255375442120648e+00  2.6258027917061155e+00  2.6261413090679664e+00  2.6267567818543416e+00  0.0000000000000000e+00  0.0000000000000000e+00  0.0000000000000000e+00  0.0000000000000000e+00  0.0000000000000000e+00  0.0000000000000000e+00  0.0000000000000000e+00  0.0000000000000000e+00  0.0000000000000000e+00  2.6248817221971152e+00  2.6254910811573180e+00  2.6257358130759734e+00  2.6260547946355737e+00  2.6266444744814574e+00  2.7177599948874596e+00  2.7138960201842095e+00  2.7133113331249485e+00  2.7138641099517602e+00  2.7117187935441631e+00  0.0000000000000000e+00  0.0000000000000000e+00  0.0000000000000000e+00  0.0000000000000000e+00  0.0000000000000000e+00  0.0000000000000000e+00  0.0000000000000000e+00  0.0000000000000000e+00  0.0000000000000000e+00  2.7177300903961505e+00  2.7139025130808441e+00  2.7133159462398928e+00  2.7138637868460598e+00  2.7117406769294603e+00  </DataArray> 
</PointData> 
</Piece>
</UnstructuredGrid>
</VTKFile>