<?xml version="1.0"?>
<VTKFile type="UnstructuredGrid"  version="0.1"  >
<UnstructuredGrid>
<Piece  NumberOfPoints="589" NumberOfCells="1080">
<Points>
<DataArray  type="Float64"  NumberOfComponents="3"  format="ascii">-9 0 0  -8 0 0  -7 0 0  -6 0 0  -5 0 0  -4 0 0  -3 0 0  -2 0 0  -1 0 0  0 0 0  1 0 0  2 0 0  3 0 0  4 0 0  5 0 0  6 0 0  7 0 0  8 0 0  9 0 0  -9 2 0  -8.000008276473372 1.999987524752437 0  -7.000017375897157 1.999976583835124 0  -6.000029223928302 1.999968422677678 0  -5.000048214340734 1.999963585959408 0  -4.00002859422426 1.999972786137229 0  -3.000008381519642 1.999981498430099 0  -1.999998488178875 1.999989667576679 0  -0.9999967667222888 1.999996120168997 0  -1.432402626679351e-07 1.999998939911156 0  0.999996130368873 1.999996955085851 0  1.999996670240429 1.999990632919803 0  3.00000458787762 1.999982868953724 0  4.000020870251865 1.999974525891419 0  5.000044461146513 1.999971013504743 0  6.00002689398232 1.999972309262927 0  7.000016016054276 1.999978675156404 0  8.000007651638049 1.999988465716078 0  9 2 0  -9 4 0  -8.000013260940872 3.99996891307196 0  -7.000023757409265 3.999942049291974 0  -6.000029878223875 3.999923547957734 0  -5.000031969681599 3.999917361686211 0  -4.000003391233528 3.999921587081604 0  -2.999984164096634 3.999946089148763 0  -1.999979041808582 3.99997801040706 0  -0.9999861605972138 4.000003682299987 0  5.584745304503028e-08 4.000014005747182 0  0.9999859875463017 4.00000584555797 0  1.99997791529879 3.999983877599842 0  2.999982128319432 3.999954129608152 0  4.000000540028728 3.9999241641844 0  5.000028536420588 3.999913955304845 0  6.000027030788158 3.999924338593675 0  7.000021977800334 3.999943652631047 0  8.000012451768919 3.999969957552564 0  9 4 0  -9 6 0  -8.0000293022009 5.999933413156574 0  -7.000047641464354 5.999874068995733 0  -6.000046649962427 5.999829416867292 0  -5.000023920951088 5.999806609023306 0  -3.999968171172711 5.999842876062308 0  -2.999942732969027 5.999918771580598 0  -1.999952543340554 5.999998352354783 0  -0.9999772866563753 6.000042621601272 0  -2.358889555885544e-06 6.000051491073763 0  0.9999750971375746 6.000037053555028 0  1.999957961991126 5.999997173948776 0  2.999951669376197 5.999929805385359 0  3.999965061948936 5.999859901016367 0  5.000012851876932 5.999825155753254 0  6.000041356982345 5.999840648700182 0  7.000045830521849 5.999880670918408 0  8.000028953077701 5.999936503429795 0  9 6 0  -9 8 0  -8.000089182521227 7.999868962594463 0  -7.000148840954819 7.999747342193722 0  -6.00015036723414 7.99964793001751 0  -5.000069243887947 7.99959181528312 0  -3.999961560017914 7.999759489185375 0  -2.999981093597136 7.99995653318109 0  -2.000021202564142 8.00005264918965 0  -1.0000244420708 8.000063739680936 0  -2.631716996098053e-07 8.000066992583756 0  1.000017816571805 8.000076672474496 0  2.000010442435335 8.000036301959533 0  2.999963609428319 7.999967557087962 0  3.999947886167686 7.999797465067266 0  5.000054140836626 7.999605523031235 0  6.000151793996869 7.999658871706063 0  7.000155069339607 7.999754471017925 0  8.000093741567987 7.999872410482821 0  9 8 0  -9 10 0  -8.000267058046882 9.999766925565366 0  -7.000482460943506 9.999531908720421 0  -6.000584579193887 9.999293461714391 0  -5.000487526416261 9.999051185107216 0  -4.000317059316929 9.999592113657361 0  -3.000344415296116 10.00005724861227 0  -2.000274760156042 9.999977531240244 0  -1.000124692744357 9.999951940724756 0  -1.395525340379598e-05 9.999945685115252 0  1.000095991937645 9.999946120940091 0  2.000242425941562 9.999943026424564 0  3.000371349908234 10.00011093982581 0  4.000355231902474 9.999666954027541 0  5.000549982254016 9.99908110568167 0  6.000639523413863 9.999308261306485 0  7.000522582349678 9.999539005132229 0  8.000288094632449 9.999769777374647 0  9 10 0  -9 12 0  -8.000651086167792 11.99967283200165 0  -7.001268455272869 11.99933048908044 0  -6.00181399721576 11.99895482247437 0  -5.002240396137752 11.99852052992856 0  -4.002153590217697 11.99950590901794 0  -3.00223200641957 12.00048135852868 0  -2.001527338046075 12.000363872718 0  -1.000744820392436 12.00030065325623 0  6.692121742304968e-05 12.0002889875238 0  1.000886247330666 12.00033096295281 0  2.001694815159833 12.00043858625586 0  3.002456043635148 12.00064186092655 0  4.002371363832791 11.99957636232781 0  5.002427557657832 11.9985019597636 0  6.001952103185676 11.99894368800578 0  7.001359741787399 11.99932366514091 0  8.000696544496755 11.99966949125719 0  9 12 0  -9 14 0  -8.001169017842191 13.99963963435608 0  -7.002340213761139 13.99926270384865 0  -6.003517344948376 13.99885118314258 0  -5.004708167863503 13.99838418164797 0  -4.004720921558588 13.99953448037952 0  -3.004727636624245 14.00069931322451 0  -2.003093135982156 14.00053351204512 0  -1.00148263354245 14.00044347193833 0  0.0001177063226071469 14.00041802193089 0  1.001720982078019 14.00045357996216 0  2.003339291182207 14.0005520692258 0  3.004982121771561 14.00071882852444 0  4.004994501654181 13.99953404891362 0  5.005001919836642 13.99835654504204 0  6.003729940771485 13.9988268952262 0  7.002478856104985 13.99924539362599 0  8.001237516616063 13.999630729127 0  9 14 0  -9 16 0  -8.001676922718646 15.99967282647448 0  -7.003386065361186 15.99933355559914 0  -6.005162438454665 15.99896988262292 0  -5.007046723280349 15.99856927853337 0  -4.007114300049259 15.99954850338801 0  -3.00705052115062 16.00052248301688 0  -2.004566358499943 16.00040117020085 0  -1.002181283279946 16.00032878757435 0  0.0001568264397219438 16.00030379980951 0  1.002497207396548 16.00032523575355 0  2.004889087215338 16.00039323678588 0  3.00738483141474 16.00050880648435 0  4.007455979198777 15.99950285012766 0  5.007393596586988 15.9984961049966 0  6.005420193358836 15.99891803939071 0  7.003556559174538 15.99930014457682 0  8.001761745458746 15.99965642101057 0  9 16 0  -9 18 0  -8.002054565617071 17.99975444182984 0  -7.004160512475377 17.99950215268847 0  -6.006371892621285 17.99923652789134 0  -5.008748059639879 17.99895123764151 0  -4.008849777560102 17.99955141680732 0  -3.008751678562623 18.00015078098278 0  -2.005647610932476 18.00007398051073 0  -1.002694111652298 18.00002543076214 0  0.0001868032326280223 18.00000478036791 0  1.003069331885407 18.00001150963086 0  2.006027566936388 18.00004497173239 0  3.009139131238944 18.00010424555306 0  4.009242864490687 17.99947968162899 0  5.009143990852809 17.99885691091091 0  6.006666790821288 17.99916884076242 0  7.004356101862102 17.99945842012506 0  8.002152054364521 17.99973297944123 0  9 18 0  -9 20 0  -8.002225401997267 19.99986295945508 0  -7.004510687402838 19.99972412596539 0  -6.006918021374332 19.99958191045564 0  -5.009514129123421 19.99943512138848 0  -4.009630014199207 19.99955120349415 0  -3.009515472877927 19.99966635667085 0  -2.006131535794849 19.99963443023369 0  -1.002918942866911 19.99961114086321 0  0.0002102452656550507 19.99959690519385 0  1.003340788407601 19.99959149374535 0  2.006557415719342 19.99959405388156 0  3.009947987724155 19.99960305417335 0  4.010064974975021 19.9994682819034 0  5.009949513728798 19.99933470063679 0  6.007242634272355 19.99950914005661 0  7.004726175323212 19.99967682243756 0  8.002332869531616 19.99983967041707 0  8.999999999997886 19.9999999999934 0  -9 22 0  -8.002155518731785 21.9999786247458 0  -7.004370141570475 21.99995962246204 0  -6.006704823617267 21.99994559339609 0  -5.009224200419584 21.99993959701008 0  -4.009337560677947 21.99954642786348 0  -3.009225089962956 21.99915219341208 0  -2.005935101377278 21.99916054402953 0  -1.002812513489668 21.9991608694699 0  0.0002282737092435826 21.99915396712221 0  1.003270277483329 21.99913980798098 0  2.00639650635848 21.99911755242363 0  3.009692537437667 21.99908553517401 0  4.009805108453337 21.99946474253107 0  5.009689835760335 21.99984456601522 0  6.007052270681883 21.99987644986437 0  7.004600916302418 21.99991453535832 0  8.002270643794391 21.99995638384845 0  9 22 0  -9 24 0  -8.001847996609699 24.00008479992708 0  -7.003746772379624 24.00017522629307 0  -6.005748543511499 24.00027713785669 0  -5.007908267342089 24.00039687485243 0  -4.008005970768278 23.99953722916615 0  -3.007910080566381 23.99867659104249 0  -2.005073940098188 23.99871856179261 0  -1.002381127975232 23.99873932425801 0  0.0002415595462163766 23.99873986994777 0  1.002865373221686 23.99872030815031 0  2.005561565256036 23.99867986991754 0  3.008403346079505 23.99861690231917 0  4.008497443190377 23.99946687530642 0  5.008396112375828 24.00031713336663 0  6.00611273183258 24.00021891887573 0  7.003988750533188 24.00013716958017 0  8.001968731807581 24.00006599884047 0  9 24 0  -9 26 0  -8.001335956549081 26.00016849540705 0  -7.002708688892016 26.00034490587239 0  -6.004155988975644 26.00053738115049 0  -5.005717457502429 26.00075455905148 0  -4.005789502509408 25.99952413205846 0  -3.0057210846427 25.99829290928975 0  -2.00364416723727 25.99836096931977 0  -1.00167137416399 25.99839820425246 0  0.0002505437259498686 25.99840575573606 0  1.002173512278082 25.99838385546492 0  2.004149460556514 25.99833182611358 0  3.006231648445375 25.99824807916405 0  4.006296904671308 25.99947269094972 0  5.006219988106909 26.00069735489473 0  6.004531301786173 26.00049552103683 0  7.002958132496683 26.00031749559321 0  8.001460439995482 26.00015493892046 0  9 26 0  -9 28 0  -8.000675189701681 28.0002205603075 0  -7.001369376166521 28.00045034513787 0  -6.002102138912957 28.00069881680331 0  -5.002893916804132 28.0009759214166 0  -4.002933446114468 27.99950832858836 0  -3.002899605307043 27.9980402851477 0  -2.001802505387751 27.99812621125935 0  -1.000760206634547 27.99817534588324 0  0.0002555302975509329 27.99818896780829 0  1.001272249828619 27.99816742694508 0  2.00231749619107 27.99811014459712 0  3.003419508649069 27.99801561225856 0  4.003449348262843 27.99948084864598 0  5.003404206302661 28.00094605527423 0  6.002483389503616 28.00067691563946 0  7.001622837115078 28.00043598096665 0  8.00080170254
[...]
<PointData  Scalars="f_44-1"> 
<DataArray  type="Float64"  Name="f_44-1"  format="ascii">1.5693831416005576e-03  2.2950187976808404e-05  4.8934189081761325e-05  1.1407701896020232e-04  -1.6119457321784733e-03  0.0000000000000000e+00  0.0000000000000000e+00  0.0000000000000000e+00  0.0000000000000000e+00  0.0000000000000000e+00  0.0000000000000000e+00  0.0000000000000000e+00  0.0000000000000000e+00  0.0000000000000000e+00  1.5793480665323020e-03  2.3333838229990378e-05  5.0073522219271373e-05  1.0773182036425444e-04  -1.6307830365213083e-03  9.5584990918280599e-02  9.5611121680271208e-02  9.5457485916005017e-02  9.5163966299503730e-02  9.5028771143242291e-02  0.0000000000000000e+00  0.0000000000000000e+00  0.0000000000000000e+00  0.0000000000000000e+00  0.0000000000000000e+00  0.0000000000000000e+00  0.0000000000000000e+00  0.0000000000000000e+00  0.0000000000000000e+00  9.5600033712172461e-02  9.5621297876481992e-02  9.5461608980563550e-02  9.5165237866293759e-02  9.5026155800983239e-02  1.9083259305762859e-01  1.9081657713542227e-01  1.9077165811023830e-01  1.9073602662697739e-01  1.9075302386370444e-01  0.0000000000000000e+00  0.0000000000000000e+00  0.0000000000000000e+00  0.0000000000000000e+00  0.0000000000000000e+00  0.0000000000000000e+00  0.0000000000000000e+00  0.0000000000000000e+00  0.0000000000000000e+00  1.9082256707386372e-01  1.9082471150654645e-01  1.9079522434535051e-01  1.9076465850633234e-01  1.9078131943924104e-01  2.8620645999567812e-01  2.8620370368063136e-01  2.8620362953751632e-01  2.8620576916789381e-01  2.8619245204254518e-01  0.0000000000000000e+00  0.0000000000000000e+00  0.0000000000000000e+00  0.0000000000000000e+00  0.0000000000000000e+00  0.0000000000000000e+00  0.0000000000000000e+00  0.0000000000000000e+00  0.0000000000000000e+00  2.8621670990260256e-01  2.8621087567166792e-01  2.8621589969641914e-01  2.8622234229678623e-01  2.8622845844853922e-01  3.8163393747785340e-01  3.8161824542400108e-01  3.8157082193812397e-01  3.8146437465298422e-01  3.8139300052058528e-01  0.0000000000000000e+00  0.0000000000000000e+00  0.0000000000000000e+00  0.0000000000000000e+00  0.0000000000000000e+00  0.0000000000000000e+00  0.0000000000000000e+00  0.0000000000000000e+00  0.0000000000000000e+00  3.8156763619425654e-01  3.8162836391793953e-01  3.8165126231032165e-01  3.8166845488023454e-01  3.8167949400055745e-01  4.7714655688319230e-01  4.7712902455494910e-01  4.7709585846962815e-01  4.7708252906611931e-01  4.7709098891177781e-01  0.0000000000000000e+00  1.4664852989055404e+00  1.4663678977352992e+00  1.4664656725211263e+00  1.4664483187862618e+00  1.4664790331931490e+00  1.4664356879644282e+00  1.4656603439824845e+00  0.0000000000000000e+00  4.7706564288987091e-01  4.7708710208872657e-01  4.7710813150051168e-01  4.7713964735059183e-01  4.7715712191698800e-01  5.7273251945810988e-01  5.7270563004408370e-01  5.7264221020737849e-01  5.7255239198908914e-01  5.7237090584890904e-01  0.0000000000000000e+00  1.4664939746973822e+00  1.4664569765299817e+00  1.4664316708639897e+00  1.4664043460741756e+00  1.4664244702276192e+00  1.4664470358744306e+00  1.4666851454733221e+00  0.0000000000000000e+00  5.7235549203462521e-01  5.7248184119922374e-01  5.7260472424749997e-01  5.7267247746910088e-01  5.7270065311163665e-01  6.6847125344916403e-01  6.6843483533939796e-01  6.6833103915944425e-01  6.6816315344898713e-01  6.6790180528259324e-01  0.0000000000000000e+00  1.4666612121423521e+00  1.4664374816589612e+00  1.4662824364901330e+00  1.4662335944239595e+00  1.4662671567316894e+00  1.4663806816791491e+00  1.4665629272915135e+00  0.0000000000000000e+00  6.6777627245705129e-01  6.6805788959213175e-01  6.6825188065239338e-01  6.6837023322427647e-01  6.6841106033606168e-01  7.6448114801627953e-01  7.6443780283937879e-01  7.6429672751522182e-01  7.6405754495006772e-01  7.6369476916503132e-01  0.0000000000000000e+00  1.4662891003347440e+00  1.4659888669938497e+00  1.4658074777817034e+00  1.4657447227213687e+00  1.4657956663973730e+00  1.4659612496019636e+00  1.4662627992159363e+00  0.0000000000000000e+00  7.6354473161769298e-01  7.6394013920060766e-01  7.6421687581866837e-01  7.6437644691699558e-01  7.6442489751444298e-01  8.6087472563073197e-01  8.6082896934376429e-01  8.6066520633569488e-01  8.6038190561650996e-01  8.5996212167731867e-01  0.0000000000000000e+00  1.4654632697187773e+00  1.4650905717383516e+00  1.4648665810492283e+00  1.4647898771483174e+00  1.4648576151685846e+00  1.4650705165875819e+00  1.4654424867055771e+00  0.0000000000000000e+00  8.5988252615550109e-01  8.6032584101998455e-01  8.6063438298036532e-01  8.6081239890336936e-01  8.6086288820549606e-01  9.5772535287263727e-01  9.5768231741881349e-01  9.5751529767507593e-01  9.5722329482540558e-01  9.5679759216340021e-01  0.0000000000000000e+00  1.4639890425522808e+00  1.4635863103537499e+00  1.4633493768273493e+00  1.4632704945968269e+00  1.4633471792575923e+00  1.4635815803055512e+00  1.4639834552302902e+00  0.0000000000000000e+00  9.5682024565173684e-01  9.5726407326979912e-01  9.5757043908275041e-01  9.5774574330149242e-01  9.5779243994309915e-01  1.0550515849615330e+00  1.0550159103312562e+00  1.0548649942798349e+00  1.0545988718951382e+00  1.0542157921693707e+00  0.0000000000000000e+00  1.4618273972448426e+00  1.4614381075829417e+00  1.4612125004313030e+00  1.4611385742939937e+00  1.4612153033643969e+00  1.4614456733220174e+00  1.4618348412231725e+00  0.0000000000000000e+00  1.0543620992014715e+00  1.0547567065108845e+00  1.0550267775069340e+00  1.0551803340006931e+00  1.0552186134684713e+00  1.1528155092252319e+00  1.1527907579542256e+00  1.1526726072562687e+00  1.1524621714157142e+00  1.1521635650894777e+00  0.0000000000000000e+00  1.4590003570655561e+00  1.4586659380375473e+00  1.4584752926012514e+00  1.4584140209881917e+00  1.4584823009427279e+00  1.4586835119542223e+00  1.4590178741338495e+00  0.0000000000000000e+00  1.1524403298552870e+00  1.1527436220200151e+00  1.1529483797788627e+00  1.1530640089503570e+00  1.1530902557556548e+00  1.2509292618275589e+00  1.2509176131315625e+00  1.2508445864401891e+00  1.2507121930250065e+00  1.2505293803561026e+00  0.0000000000000000e+00  1.4556021421338146e+00  1.4553576868901830e+00  1.4552218696838353e+00  1.4551795382034647e+00  1.4552319437648444e+00  1.4553825623645416e+00  1.4556269231694259e+00  0.0000000000000000e+00  1.2509296330297182e+00  1.2511107501267447e+00  1.2512294165798630e+00  1.2512956334360150e+00  1.2513077228101239e+00  1.3492667955285031e+00  1.3492688952071898e+00  1.3492480597492633e+00  1.3492068973257894e+00  1.3491580733815118e+00  0.0000000000000000e+00  1.4517870383451634e+00  1.4516577240613726e+00  1.4515906830519916e+00  1.4515715917344190e+00  1.4516025938106702e+00  1.4516869838853381e+00  1.4518160885224947e+00  0.0000000000000000e+00  1.3496637244498169e+00  1.3497053127804453e+00  1.3497266688602396e+00  1.3497375326494356e+00  1.3497349563514573e+00  1.4476788112116112e+00  1.4476937846824862e+00  1.4477264803791747e+00  1.4477797560345478e+00  1.4478687947210356e+00  0.0000000000000000e+00  1.4477522964714378e+00  1.4477511895678583e+00  1.4477597165470242e+00  1.4477657849686627e+00  1.4477722046460690e+00  1.4477818359829771e+00  1.4477825984592765e+00  0.0000000000000000e+00  1.4484531893099271e+00  1.4483525342128949e+00  1.4482756254375926e+00  1.4482310637095477e+00  1.4482149020298338e+00  1.5460092254570614e+00  1.5460348200933469e+00  1.5461167280736716e+00  1.5462577426339590e+00  1.5464742351766216e+00  0.0000000000000000e+00  1.4437178947532472e+00  1.4438448798071302e+00  1.4439280018992173e+00  1.4439585676373485e+00  1.4439398034243400e+00  1.4438739043451947e+00  1.4437464665530884e+00  0.0000000000000000e+00  1.5471050777053046e+00  1.5468739467328037e+00  1.5467078622727448e+00  1.5466134952743573e+00  1.5465862494160403e+00  1.6441116203217612e+00  1.6441444725700363e+00  1.6442661749546876e+00  1.6444792079220232e+00  1.6447996384537140e+00  0.0000000000000000e+00  1.4399043143656185e+00  1.4401461153198956e+00  1.4402951458781084e+00  1.4403469911105184e+00  1.4403050253428231e+00  1.4401705681219810e+00  1.4399282464006014e+00  0.0000000000000000e+00  1.6454420016139200e+00  1.6451053532832349e+00  1.6448682229488183e+00  1.6447347217106463e+00  1.6447000208646725e+00  1.7418643278077464e+00  1.7419003709890484e+00  1.7420483067746455e+00  1.7423101763659354e+00  1.7427001566156903e+00  0.0000000000000000e+00  1.4365100583886397e+00  1.4368413599118279e+00  1.4370406083885685e+00  1.4371081996271708e+00  1.4370473745423433e+00  1.4368584041347496e+00  1.4365265409687888e+00  0.0000000000000000e+00  1.7433195897885847e+00  1.7429132059563817e+00  1.7426304081713904e+00  1.7424724060691412e+00  1.7424346118525937e+00  1.8391826096015647e+00  1.8392173636875311e+00  1.8393751730341141e+00  1.8396578671412269e+00  1.8400756469543289e+00  0.0000000000000000e+00  1.4336906963422937e+00  1.4340764042397285e+00  1.4343045120175792e+00  1.4343804622260585e+00  1.4343070725698659e+00  1.4340834297817739e+00  1.4336971414623441e+00  0.0000000000000000e+00  1.8406411907464326e+00  1.8402081072732048e+00  1.8399097192235514e+00  1.8397443355011420e+00  1.8397080522654126e+00  1.9360281413827896e+00  1.9360577319213752e+00  1.9362086478646048e+00  1.9364823066850330e+00  1.9368830434982802e+00  0.0000000000000000e+00  1.4315415630478365e+00  1.4319398181107577e+00  1.4321718602740665e+00  1.4322477604453951e+00  1.4321694767703159e+00  1.4319346288398314e+00  1.4315351909426210e+00  0.0000000000000000e+00  1.9373681169253290e+00  1.9369540918509172e+00  1.9366719284696567e+00  1.9365167642138861e+00  1.9364862535791298e+00  2.0324088530294921e+00  2.0324295852811809e+00  2.0325575011071870e+00  2.0327940721528428e+00  2.0331349875381517e+00  0.0000000000000000e+00  1.4300838576713577e+00  1.4304524372741356e+00  1.4306632012785714e+00  1.4307302085095033e+00  1.4306540258835303e+00  1.4304319515876216e+00  1.4300625437534626e+00  0.0000000000000000e+00  2.0335242498564416e+00  2.0331743447247232e+00  2.0329366781089693e+00  2.0328075036819850e+00  2.0327859532993657e+00  2.1283840080815479e+00  2.1283966870411799e+00  2.1284904386165193e+00  2.1286656626521139e+00  2.1289094236454784e+00  0.0000000000000000e+00  1.4292658931740370e+00  1.4295647514632732e+00  1.4297286387118540e+00  1.4297790227205718e+00  1.4297167980994965e+00  1.4295369502840676e+00  1.4292393945053758e+00  0.0000000000000000e+00  2.1292085498387805e+00  2.1289447924700915e+00  2.1287744470979217e+00  2.1286823955912735e+00  2.1286714194886813e+00  2.2240362987439237e+00  2.2240375526791669e+00  2.2240933942889454e+00  2.2242261669677412e+00  2.2243976054578685e+00  0.0000000000000000e+00  1.4289686167116571e+00  1.4291486777293321e+00  1.4292612575466346e+00  1.4292943709736341e+00  1.4292453964612089e+00  1.4290905566272742e+00  1.4288687711209831e+00  0.0000000000000000e+00  2.2245106510326278e+00  2.2243893142757374e+00  2.2242949925620032e+00  2.2242455785472974e+00  2.2242441630716190e+00  2.3194776258344540e+00  2.3194752581219471e+00  2.3195051116900052e+00  2.3195562063904052e+00  2.3195545488062130e+00  0.0000000000000000e+00  1.4288474766352206e+00  1.4290855042216821e+00  1.4291080639950249e+00  1.4291281211312874e+00  1.4291007352056413e+00  1.4290752780587777e+00  1.4290370289126511e+00  0.0000000000000000e+00  2.3197582861371733e+00  2.3196553441386332e+00  2.3196326287076059e+00  2.3196200525559187e+00  2.3196261687377713e+00  2.4148222692193144e+00  2.4148128315022532e+00  2.4148032830861781e+00  2.4147594585860341e+00  2.4147345688724506e+00  0.0000000000000000e+00  1.4298725904052740e+00  1.4290991164896363e+00  1.4290574967702125e+00  1.4290881988516531e+00  1.4290707831028555e+00  1.4291670449357372e+00  1.4290510774179881e+00  0.0000000000000000e+00  2.4147093029617133e+00  2.4148555304712818e+00  2.4149069343848639e+00  2.4149308762847683e+00  2.4149399104204421e+00  2.5101540436153118e+00  2.5101621081645731e+00  2.5101420951771765e+00  2.5101193359266931e+00  2.5101249613223726e+00  0.0000000000000000e+00  0.0000000000000000e+00  0.0000000000000000e+00  0.0000000000000000e+00  0.0000000000000000e+00  0.0000000000000000e+00  0.0000000000000000e+00  0.0000000000000000e+00  0.0000000000000000e+00  2.5101995315244379e+00  2.5102295709350657e+00  2.5102486504951997e+00  2.5102694786484743e+00  2.5102871753825968e+00  2.6056050074840380e+00  2.6055632586706690e+00  2.6055622407846664e+00  2.6055710830363079e+00  2.6055319775742580e+00  0.0000000000000000e+00  0.0000000000000000e+00  0.0000000000000000e+00  0.0000000000000000e+00  0.0000000000000000e+00  0.0000000000000000e+00  0.0000000000000000e+00  0.0000000000000000e+00  0.0000000000000000e+00  2.6057246275932733e+00  2.6056735630853467e+00  2.6056855945245023e+00  2.6057130858130844e+00  2.6056990249747085e+00  2.7007969118127670e+00  2.7008104965608006e+00  2.7008486271094179e+00  2.7007672327005512e+00  2.7007305853235626e+00  0.0000000000000000e+00  0.0000000000000000e+00  0.0000000000000000e+00  0.0000000000000000e+00  0.0000000000000000e+00  0.0000000000000000e+00  0.0000000000000000e+00  0.0000000000000000e+00  0.0000000000000000e+00  2.7008984369934939e+00  2.7009118739877480e+00  2.7009479508418126e+00  2.7008705049709989e+00  2.7008415576464722e+00  2.7960906935891567e+00  2.7965394059353357e+00  2.7966135449147380e+00  2.7968614439581541e+00  2.7973319426807546e+00  0.0000000000000000e+00  0.0000000000000000e+00  0.0000000000000000e+00  0.0000000000000000e+00  0.0000000000000000e+00  0.0000000000000000e+00  0.0000000000000000e+00  0.0000000000000000e+00  0.0000000000000000e+00  2.7961920174183130e+00  2.7966076933972586e+00  2.7966674662388482e+00  2.7969001135098148e+00  2.7973494857286250e+00  2.8954810727890883e+00  2.8915672510261365e+00  2.8912396522755701e+00  2.8916337736506534e+00  2.8894525770769737e+00  0.0000000000000000e+00  0.0000000000000000e+00  0.0000000000000000e+00  0.0000000000000000e+00  0.0000000000000000e+00  0.0000000000000000e+00  0.0000000000000000e+00  0.0000000000000000e+00  0.0000000000000000e+00  2.8954378751281005e+00  2.8915742548951173e+00  2.8912435402453065e+00  2.8916329273416470e+00  2.8894792750429268e+00  </DataArray> 
</PointData> 
</Piece>
</UnstructuredGrid>
</VTKFile>