<?xml version="1.0"?>
<VTKFile type="UnstructuredGrid"  version="0.1"  >
<UnstructuredGrid>
<Piece  NumberOfPoints="589" NumberOfCells="1080">
<Points>
<DataArray  type="Float64"  NumberOfComponents="3"  format="ascii">-9 0 0  -8 0 0  -7 0 0  -6 0 0  -5 0 0  -4 0 0  -3 0 0  -2 0 0  -1 0 0  0 0 0  1 0 0  2 0 0  3 0 0  4 0 0  5 0 0  6 0 0  7 0 0  8 0 0  9 0 0  -9 2 0  -8.000000402694161 1.999999630887805 0  -7.00000086258463 1.999999275855767 0  -6.000001468929224 1.999998942490326 0  -5.000002388125832 1.999998621628928 0  -4.000001765715145 1.999999053624251 0  -3.000001048812888 1.999999298027765 0  -2.000000586510012 1.999999454938927 0  -1.00000027597573 1.999999573096919 0  -5.755447265647594e-08 1.999999622485461 0  1.000000152348529 1.99999959159276 0  2.000000432171711 1.999999485361291 0  3.000000843214486 1.999999336319082 0  4.000001419962991 1.99999913584521 0  5.000002187082293 1.999998950362519 0  6.000001339586135 1.999999117246111 0  7.000000784295199 1.999999368460741 0  8.000000365599584 1.999999671627247 0  9 2 0  -9 4 0  -8.000000576602655 3.999999205455615 0  -7.000001139352244 3.999998465045771 0  -6.000001686449308 3.999997834965017 0  -5.000002231327541 3.999997376440192 0  -4.000001512402794 3.999997488840726 0  -3.000000910401725 3.999997917458672 0  -2.00000049212424 3.999998472694377 0  -1.000000234193533 3.999998898172929 0  -7.671964496023621e-08 3.999999071424822 0  1.000000073514417 3.999998953150443 0  2.000000311711577 3.999998603000759 0  3.000000728221747 3.999998110740071 0  4.000001332855434 3.999997603349692 0  5.000002007947617 3.99999736263096 0  6.000001510349542 3.999997897168627 0  7.000001022208233 3.999998529114691 0  8.000000518814442 3.999999242430158 0  9 4 0  -9 6 0  -8.000000805922998 5.999998563486934 0  -7.000001478730046 5.999997212920846 0  -6.000001912845269 5.999996041217076 0  -5.000002071267454 5.999995147697296 0  -4.000000989971818 5.999995666430697 0  -3.000000329253758 5.999996788225998 0  -2.000000130095614 5.999997965930999 0  -1.00000013901712 5.999998641827855 0  -1.593143030905856e-07 5.999998804663874 0  0.999999862351878 5.999998584766001 0  1.999999972439083 5.999997989156254 0  3.000000213243905 5.999997013953764 0  4.000000697891346 5.999996005352889 0  5.000001649552169 5.999995529487009 0  6.00000164328642 5.999996287458703 0  7.000001321131092 5.999997364292549 0  8.000000733711442 5.999998636217142 0  9 6 0  -9 8 0  -8.000001567702929 7.999997577735591 0  -7.000002772874371 7.999995245352117 0  -6.000003242014436 7.999993134738242 0  -5.000002598913544 7.999991482749388 0  -4.000000934772022 7.999993802185207 0  -3.000000850439184 7.99999653427897 0  -2.000001066319197 7.99999794520906 0  -1.000000801249689 7.999998229367357 0  -1.965800345440509e-07 7.999998319557642 0  1.000000346393039 7.999998393037841 0  2.000000517538689 7.999997804218408 0  3.000000223551524 7.999996711523016 0  4.000000448859393 7.999994383900335 0  5.000002194942629 7.99999183838874 0  6.000003039779878 7.999993402306307 0  7.000002681108681 7.999995419112581 0  8.000001533772746 7.999997662575573 0  9 8 0  -9 10 0  -8.000003779591205 9.999996232476276 0  -7.000007011119843 9.999992390728179 0  -6.00000902012713 9.999988393796974 0  -5.000008825996464 9.999984144014247 0  -4.000006517965252 9.999990853108672 0  -3.000006202322513 9.999996733556483 0  -2.00000463838333 9.999996172523558 0  -1.000002286013019 9.999995992109987 0  -4.12474788612624e-07 9.99999595375338 0  1.000001450284481 9.999995923628331 0  2.00000373492867 9.99999577355862 0  3.000006126090102 9.999997344277048 0  4.000006533725033 9.999991763334448 0  5.000009016737568 9.999984678661759 0  6.000009250274932 9.999988705626564 0  7.000007195724658 9.999992567322654 0  8.000003879566144 9.999996313100368 0  9 10 0  -9 12 0  -8.000008183661889 11.99999518414089 0  -7.000016139343678 11.99999015687874 0  -6.00002361060365 11.99998466432996 0  -5.000030290692815 11.99997835157117 0  -4.000029426403739 11.99998927797702 0  -3.000029933771077 12.00000009284508 0  -2.000020074894605 11.99999875210719 0  -1.000009938353155 11.99999804103098 0  2.671008843369585e-07 11.99999788769023 0  1.000010581840464 11.99999830410881 0  2.000021090234114 11.99999943944286 0  3.000031748741207 12.00000168327296 0  4.000031340354453 11.99999000638562 0  5.000031801301907 11.99997827539275 0  6.00002461298355 11.99998467007826 0  7.000016756700259 11.9999901792434 0  8.000008478940119 11.99999519916183 0  9 12 0  -9 14 0  -8.00001349953131 13.99999498144184 0  -7.000027205066122 13.9999897842168 0  -6.000041365448153 13.99998421576143 0  -5.000056332647279 13.99997805839052 0  -4.000056693914268 13.99998921247756 0  -3.000056230136344 14.00000055609335 0  -2.00003662230571 13.9999988131033 0  -1.000017866453426 13.99999785905463 0  5.095501419366035e-07 13.99999754262908 0  1.000018938937776 13.99999780897642 0  2.000037845395666 13.99999867142044 0  3.000057656577592 14.00000018353003 0  4.00005835482601 13.99998906189314 0  5.000058214841204 13.99997805581751 0  6.000042647238711 13.9999841767141 0  7.000028003402952 13.99998974821091 0  8.00001388291696 13.99999496157695 0  9 14 0  -9 16 0  -8.000017991240536 15.99999549342079 0  -7.000036451161829 15.99999089650025 0  -6.000055892642962 15.99998612289019 0  -5.000076921046006 15.99998109793096 0  -4.000077753490483 15.99998890366665 0  -3.000076678865113 15.99999663900976 0  -2.000049762192197 15.9999957184488 0  -1.000024275333543 15.99999512667423 0  5.384592972802117e-07 15.9999948665541 0  1.000025387916049 15.99999492953324 0  2.000050982011778 15.99999530481132 0  3.000078081135665 15.99999597509346 0  4.000079232481402 15.99998835064273 0  5.000078438120236 15.99998072352117 0  6.000056985976215 15.99998588098648 0  7.000037156434254 15.99999074973134 0  8.000018336453621 15.99999542377948 0  9 16 0  -9 18 0  -8.000020608128093 17.99999636676144 0  -7.000041770656107 17.99999271554301 0  -6.000064071766314 17.99998903541723 0  -5.000088155151738 17.99998533059498 0  -4.000089143313595 17.99998846532533 0  -3.000087979957206 17.99999159911913 0  -2.00005718323886 17.99999130860127 0  -1.000027992146752 17.99999106773393 0  4.247035328404532e-07 17.9999908981409 0  1.000028858513208 17.9999908009499 0  2.000058098901969 17.9999907582338 0  3.000088971867706 17.99999073057037 0  4.000090169618344 17.9999878031216 0  5.000089190047421 17.9999849037718 0  6.000064833891401 17.99998874014672 0  7.000042270954394 17.99999253004242 0  8.000020855730408 17.99999627729032 0  9 18 0  -9 20 0  -8.000021007311121 19.99999731201126 0  -7.000042535614629 19.99999465020322 0  -6.000065121502012 19.99999204671299 0  -5.000089331843867 19.9999895458034 0  -4.000090260832601 19.99998804270583 0  -3.000089205903718 19.99998654324056 0  -2.000058182163812 19.99998670015708 0  -1.000028612148775 19.99998672370646 0  2.431066762745934e-07 19.99998664013456 0  1.00002910296994 19.99998645447843 0  2.000058685863112 19.99998615144713 0  3.000089728058739 19.99998569471474 0  4.000090776893559 19.9999874303691 0  5.000089844485593 19.99998918380446 0  6.0000655085782 19.99999178520486 0  7.000042794497752 19.99999448093162 0  8.000021136912256 19.9999972289425 0  9 20 0  -9 22 0  -8.000019322448292 21.99999815252749 0  -7.000039070069928 21.99999635157737 0  -6.000059673138743 21.99999464766467 0  -5.000081571045949 21.9999930993051 0  -4.000082337774122 21.99998765614371 0  -3.000081514967528 21.99998222029734 0  -2.000053366519518 21.99998262515233 0  -1.000026373306089 21.99998280814112 0  4.308332518762956e-08 21.99998279044378 0  1.00002645547186 21.99998257748313 0  2.00005343595743 21.99998215943228 0  3.000081560784727 21.99998151130168 0  4.000082359006219 21.99998716880626 0  5.00008158101392 21.99999283781213 0  6.000059695683862 21.99999445293477 0  7.000039091898525 21.99999622266803 0  8.000019335328405 21.99999808839596 0  9 22 0  -9 24 0  -8.000015936834668 23.99999880694629 0  -7.000032182600004 23.9999976647898 0  -6.000049045190413 23.9999966263864 0  -5.000066829583196 23.99999574841386 0  -4.000067410598144 23.99998733704218 0  -3.000066854057355 23.99997893621128 0  -2.000043930215787 23.99997943757026 0  -1.000021827296242 23.99997969528251 0  -1.409272572005013e-07 23.99997972176899 0  1.000021535733797 23.99997952080943 0  2.000043608985176 23.99997908769172 0  3.00006648157938 23.99997840955049 0  4.000067005999442 23.99998699408191 0  5.000066415068107 23.99999558807166 0  6.000048756365433 23.99999650220482 0  7.000032000311772 23.99999758041374 0  8.000015848729161 23.99999876433629 0  9 24 0  -9 26 0  -8.000011315449994 25.99999925777161 0  -7.000022827551965 25.99999856298266 0  -6.000034729833361 25.99999796337392 0  -5.000047208851988 25.99999750713661 0  -4.000047621872745 25.99998710308528 0  -3.00004731985139 25.99997671062471 0  -2.000031210465723 25.99997722453824 0  -1.000015615197646 25.99997750729141 0  -2.860967424153654e-07 25.99997756284322 0  1.000015029766912 25.99997739273179 0  2.000030584906888 25.99997699600554 0  3.000046626035301 25.99997636976258 0  4.00004689503698 25.99998689205787 0  5.000046476076935 25.99999742295686 0  6.000034206261735 25.99999789516209 0  7.000022490732448 25.99999851529828 0  8.000011150677091 25.99999923330747 0  9 26 0  -9 28 0  -8.000005907412133 27.99999951883681 0  -7.000011911676764 27.99999908045143 0  -6.000018107341824 27.99999872686967 0  -5.000024583961781 27.99999849843163 0  -4.000024858421915 27.99998696000424 0  -3.000024783396152 27.99997543285917 0  -2.000016434474913 27.99997593612218 0  -1.000008338537623 27.9999762280812 0  -3.783095042744461e-07 27.99997630654606 0  1.000007566816689 27.99997617108838 0  2.00001561711786 27.99997582282455 0  3.000023888809273 27.99997526484093 0  4.000023932145309 27.9999868589411 0  5.000023655515481 27.99999846214541 0  6.000017438837483 27.99999869639163 0  7.000011479154412 27.99999905868841 0  8.000005695073396 27.9999995075437 0  9 28 0  -9 30
[...]
<PointData  Scalars="f_44-1"> 
<DataArray  type="Float64"  Name="f_44-1"  format="ascii">1.4182339868233000e-04  1.9441550049719320e-05  8.4926003239955358e-06  1.5509721386498487e-05  -1.5702547136491063e-04  0.0000000000000000e+00  0.0000000000000000e+00  0.0000000000000000e+00  0.0000000000000000e+00  0.0000000000000000e+00  0.0000000000000000e+00  0.0000000000000000e+00  0.0000000000000000e+00  0.0000000000000000e+00  1.4600778043194522e-04  1.9510872378250396e-05  8.6921284216886520e-06  1.5438207425474824e-05  -1.6423591795526409e-04  6.0032267449661291e-03  6.0091631374826942e-03  6.0053794857240902e-03  5.9896038896265422e-03  5.9772649547622661e-03  0.0000000000000000e+00  0.0000000000000000e+00  0.0000000000000000e+00  0.0000000000000000e+00  0.0000000000000000e+00  0.0000000000000000e+00  0.0000000000000000e+00  0.0000000000000000e+00  0.0000000000000000e+00  6.0204474214057323e-03  6.0247952473383116e-03  6.0194457609631536e-03  6.0017763059344005e-03  5.9877513902442470e-03  1.2010870507234990e-02  1.2011191123560206e-02  1.2008410256083315e-02  1.2007711193791159e-02  1.2011193736760553e-02  0.0000000000000000e+00  0.0000000000000000e+00  0.0000000000000000e+00  0.0000000000000000e+00  0.0000000000000000e+00  0.0000000000000000e+00  0.0000000000000000e+00  0.0000000000000000e+00  0.0000000000000000e+00  1.2041425910412431e-02  1.2040389698240729e-02  1.2035977888815436e-02  1.2033769150123262e-02  1.2036715374220627e-02  1.8014986761507132e-02  1.8014974610294103e-02  1.8015801134760808e-02  1.8016988568519018e-02  1.8017058508112638e-02  0.0000000000000000e+00  0.0000000000000000e+00  0.0000000000000000e+00  0.0000000000000000e+00  0.0000000000000000e+00  0.0000000000000000e+00  0.0000000000000000e+00  0.0000000000000000e+00  0.0000000000000000e+00  1.8064107542166245e-02  1.8060159232750627e-02  1.8056372296278957e-02  1.8053801974737219e-02  1.8053135639451399e-02  2.4014319212853984e-02  2.4015484642294253e-02  2.4020751403755994e-02  2.4027644161234020e-02  2.4034431114178974e-02  0.0000000000000000e+00  0.0000000000000000e+00  0.0000000000000000e+00  0.0000000000000000e+00  0.0000000000000000e+00  0.0000000000000000e+00  0.0000000000000000e+00  0.0000000000000000e+00  0.0000000000000000e+00  2.4089739311455565e-02  2.4081445352508554e-02  2.4071355745768623e-02  2.4064009385252001e-02  2.4062097097381812e-02  2.9992252561408569e-02  2.9996371743048960e-02  3.0014123177098655e-02  3.0043593449648229e-02  3.0083756964433103e-02  0.0000000000000000e+00  6.0408051962700764e-02  6.0438322908778153e-02  6.0487470793910793e-02  6.0505982112453692e-02  6.0486042453931237e-02  6.0431381558170683e-02  6.0342790192257273e-02  0.0000000000000000e+00  3.0139773896145319e-02  3.0102748659281222e-02  3.0071752494614020e-02  3.0051791911282693e-02  3.0046855398807776e-02  3.5909316954334504e-02  3.5918514141665310e-02  3.5957573015021969e-02  3.6024649629804145e-02  3.6115988292970483e-02  0.0000000000000000e+00  6.0406975933378057e-02  6.0505182662603033e-02  6.0566697593370057e-02  6.0585045072041988e-02  6.0561694754183062e-02  6.0500357530223738e-02  6.0410376320415252e-02  0.0000000000000000e+00  3.6191801904107389e-02  3.6094194726971694e-02  3.6023425405901192e-02  3.5980736162471785e-02  3.5970302707367986e-02  4.1700618636396819e-02  4.1716768319856379e-02  4.1784861883683515e-02  4.1905102034147233e-02  4.2079852438591303e-02  0.0000000000000000e+00  6.0543798140901890e-02  6.0709505376827892e-02  6.0808795216055984e-02  6.0840945758019807e-02  6.0805237874535976e-02  6.0701898679520493e-02  6.0528144643530388e-02  0.0000000000000000e+00  4.2162021790245238e-02  4.1983707379001881e-02  4.1858276861695971e-02  4.1785534420430662e-02  4.1767876585207211e-02  4.7282546829430186e-02  4.7305822424806000e-02  4.7403315139813197e-02  4.7576566715374101e-02  4.7831004219323556e-02  0.0000000000000000e+00  6.0930792896610707e-02  6.1177424373722401e-02  6.1323133289601102e-02  6.1370421256925288e-02  6.1320362353652756e-02  6.1172057215402392e-02  6.0919397304955360e-02  0.0000000000000000e+00  4.7918224200164103e-02  4.7659796665719276e-02  4.7481379719882005e-02  4.7379530053392988e-02  4.7354863893422430e-02  5.2571902873674713e-02  5.2600733655142839e-02  5.2720872574454528e-02  5.2934366096993056e-02  5.3248485541102654e-02  0.0000000000000000e+00  6.1742323045563624e-02  6.2047772004927726e-02  6.2227362996297421e-02  6.2285997655804302e-02  6.2225280665476009e-02  6.2043780776362745e-02  6.1734324413620922e-02  0.0000000000000000e+00  5.3335871622716219e-02  5.3017947221840910e-02  5.2800220450511713e-02  5.2676853558669107e-02  5.2647001115884870e-02  5.7505720882077845e-02  5.7537335996540845e-02  5.7668543953464386e-02  5.7901205176213243e-02  5.8242999460140027e-02  0.0000000000000000e+00  6.3082373551132692e-02  6.3415048531321849e-02  6.3610045174741017e-02  6.3673898967911757e-02  6.3608373244355768e-02  6.3411763668601739e-02  6.3076912846997304e-02  0.0000000000000000e+00  5.8324149141992208e-02  5.7979986337883108e-02  5.7745304255246009e-02  5.7612829241364058e-02  5.7580774276471257e-02  6.2054951836696057e-02  6.2086002278634048e-02  6.2214441248919679e-02  6.2441499854087187e-02  6.2774092048594132e-02  0.0000000000000000e+00  6.4998471795193705e-02  6.5322194588876753e-02  6.5511421211302850e-02  6.5573444621977006e-02  6.5509895629289980e-02  6.5319042478496264e-02  6.4994806617502843e-02  0.0000000000000000e+00  6.2845357506565142e-02  6.2512195463667430e-02  6.2285762899184527e-02  6.2158324881130066e-02  6.2127489303648857e-02  6.6230793568617052e-02  6.6257908602021465e-02  6.6369745959101278e-02  6.6566690355646899e-02  6.6854022309340538e-02  0.0000000000000000e+00  6.7473884049532570e-02  6.7753393753654675e-02  6.7916199481090345e-02  6.7969515779432887e-02  6.7914632051228274e-02  6.7749991477319457e-02  6.7471339524504487e-02  0.0000000000000000e+00  6.6914114956306822e-02  6.6628040676571243e-02  6.6434318775761544e-02  6.6325660660116637e-02  6.6299378326176786e-02  7.0084450517339816e-02  7.0104684989363480e-02  7.0187893462811304e-02  7.0333567249219645e-02  7.0544783240767364e-02  0.0000000000000000e+00  7.0430611380024821e-02  7.0635856142298351e-02  7.0754688111119374e-02  7.0793463545218080e-02  7.0753004315301460e-02  7.0632086034390335e-02  7.0428723883186606e-02  0.0000000000000000e+00  7.0594775360992290e-02  7.0386361737541550e-02  7.0246060714702435e-02  7.0167812393330545e-02  7.0148910844252996e-02  7.3701664354133223e-02  7.3712830953786904e-02  7.3758517557024963e-02  7.3837395233299893e-02  7.3950052615413153e-02  0.0000000000000000e+00  7.3739327481305031e-02  7.3848535296998516e-02  7.3910744833273284e-02  7.3930790115153827e-02  7.3908960546558794e-02  7.3844476971282935e-02  7.3737789914486401e-02  0.0000000000000000e+00  7.3992987577359864e-02  7.3884160193405019e-02  7.3812066864384462e-02  7.3772500762871659e-02  7.3762991111688686e-02  7.7193401528457828e-02  7.7194292340663329e-02  7.7197578209374701e-02  7.7201262156256736e-02  7.7203424476809460e-02  0.0000000000000000e+00  7.7233918204271446e-02  7.7235592448486018e-02  7.7234603184468925e-02  7.7233755213800881e-02  7.7232791179207103e-02  7.7231448479265857e-02  7.7232523443235626e-02  0.0000000000000000e+00  7.7243637753574443e-02  7.7245675293322907e-02  7.7249274333810306e-02  7.7252516059491183e-02  7.7253395495966964e-02  8.0684027051917948e-02  8.0674528232218101e-02  8.0635002357888549e-02  8.0562985285068736e-02  8.0454269257085806e-02  0.0000000000000000e+00  8.0729115625208334e-02  8.0623013432940635e-02  8.0558880819172493e-02  8.0537178454601593e-02  8.0557132168847370e-02  8.0619026154579332e-02  8.0727687955158070e-02  0.0000000000000000e+00  8.0496558708758797e-02  8.0609139184504700e-02  8.0687966115549847e-02  8.0733628860057138e-02  8.0744788935222300e-02  8.4298217126218503e-02  8.4279320206642125e-02  8.4201083548370581e-02  8.4060806636346005e-02  8.3852428342413091e-02  0.0000000000000000e+00  8.4039615196301209e-02  8.3836757416863250e-02  8.3716148036766330e-02  8.3675813314750561e-02  8.3714533048772299e-02  8.3833124728887681e-02  8.4037940354058330e-02  0.0000000000000000e+00  8.3901171085961901e-02  8.4112418474893674e-02  8.4258117470325952e-02  8.4341345959943650e-02  8.4361584138550147e-02  8.8147821552744851e-02  8.8121531371058937e-02  8.8012831639773234e-02  8.7819038347955874e-02  8.7532860856944034e-02  0.0000000000000000e+00  8.6999200406277427e-02  8.6720914009475139e-02  8.6556505211244097e-02  8.6501730179004505e-02  8.6555035529356852e-02  8.6717707080123788e-02  8.6996957778732703e-02  0.0000000000000000e+00  8.7591181761925832e-02  8.7878711091550418e-02  8.8075796599476355e-02  8.8187720430365074e-02  8.8214854972114162e-02  9.2319884128237828e-02  9.2289021788878350e-02  9.2161465675148685e-02  9.1934825519481275e-02  9.1601363036831182e-02  0.0000000000000000e+00  8.9478391443445007e-02  8.9154338503848185e-02  8.8963613389548807e-02  8.8900146496749946e-02  8.8962208305115933e-02  8.9151427425684687e-02  8.9475097984110838e-02  0.0000000000000000e+00  9.1670450586387814e-02  9.2003457680137415e-02  9.2230808487608812e-02  9.2359420246464374e-02  9.2390511391866451e-02  9.6867082090999479e-02  9.6834975557098260e-02  9.6702287170720450e-02  9.6467228686074366e-02  9.6122521185341564e-02  0.0000000000000000e+00  9.1399025161817013e-02  9.1064152106349966e-02  9.0867552749985675e-02  9.0802075119719716e-02  9.0866015935325159e-02  9.1061138347532211e-02  9.1393981907677821e-02  0.0000000000000000e+00  9.6201229329022905e-02  9.6543694318286966e-02  9.6776824194258759e-02  9.6908305278969376e-02  9.6939986990074847e-02  1.0180191389573431e-01  1.0177198154001178e-01  1.0164829722617408e-01  1.0143000994427226e-01  1.0111127252924941e-01  0.0000000000000000e+00  9.2744048611749716e-02  9.2434368315916560e-02  9.2252761649170595e-02  9.2192055892015720e-02  9.2250818868060233e-02  9.2430657792373846e-02  9.2736482089283714e-02  0.0000000000000000e+00  1.0119611228358832e-01  1.0151117115196652e-01  1.0172531645370980e-01  1.0184583170528425e-01  1.0187475684384523e-01  1.0709598314717592e-01  1.0707120969150047e-01  1.0696894581010168e-01  1.0678979852421240e-01  1.0653031258231468e-01  0.0000000000000000e+00  9.3560759323938689e-02  9.3307707039948853e-02  9.3159196935665434e-02  9.3109113775351221e-02  9.3156557533868284e-02  9.3302608471275611e-02  9.3549778732193306e-02  0.0000000000000000e+00  1.0661503974207130e-01  1.0687065429386031e-01  1.0704471672921405e-01  1.0714267407154043e-01  1.0716606873165438e-01  1.1268605271328351e-01  1.1266826961687650e-01  1.1259505042461471e-01  1.1246877048246055e-01  1.1228920673957953e-01  0.0000000000000000e+00  9.3952883974095444e-02  9.3778640254913795e-02  9.3675031754548069e-02  9.3639265631252300e-02  9.3671570414025643e-02  9.3771244718668711e-02  9.3937589844046820e-02  0.0000000000000000e+00  1.1236910961074668e-01  1.1254518310967646e-01  1.1266632867674557e-01  1.1273493682828513e-01  1.1275122013682939e-01  1.1848803183880056e-01  1.1847747207292161e-01  1.1843430389833734e-01  1.1836271047150977e-01  1.1826395363096480e-01  0.0000000000000000e+00  9.4070562745919212e-02  9.3980029954237196e-02  9.3918408008866097e-02  9.3894976979983391e-02  9.3913442290503926e-02  9.3975224453983694e-02  9.4073894600097824e-02  0.0000000000000000e+00  1.1833763363950690e-01  1.1843031401132210e-01  1.1849828337201761e-01  1.1853784645809101e-01  1.1854717442520277e-01  1.2441724043161510e-01  1.2441218982877342e-01  1.2439178102933184e-01  1.2435999552920235e-01  1.2432172362851281e-01  0.0000000000000000e+00  9.4136749049081217e-02  9.4047945911706801e-02  9.3993174183368625e-02  9.3973122737274983e-02  9.3991649142186245e-02  9.4040818732214829e-02  9.4071767664305014e-02  0.0000000000000000e+00  1.2437654463403743e-01  1.2441768935249013e-01  1.2444790733416389e-01  1.2446609303853721e-01  1.2447032292040199e-01  1.3040903332048251e-01  1.3040702960417644e-01  1.3039931063378507e-01  1.3038858590245361e-01  1.3037944463741813e-01  0.0000000000000000e+00  0.0000000000000000e+00  0.0000000000000000e+00  0.0000000000000000e+00  0.0000000000000000e+00  0.0000000000000000e+00  0.0000000000000000e+00  0.0000000000000000e+00  0.0000000000000000e+00  1.3043338367862362e-01  1.3044117737976813e-01  1.3044873485430300e-01  1.3045437278970182e-01  1.3045562785314768e-01  1.3642614002147105e-01  1.3642539337468507e-01  1.3642250813695406e-01  1.3641816071767715e-01  1.3641341753552932e-01  0.0000000000000000e+00  0.0000000000000000e+00  0.0000000000000000e+00  0.0000000000000000e+00  0.0000000000000000e+00  0.0000000000000000e+00  0.0000000000000000e+00  0.0000000000000000e+00  0.0000000000000000e+00  1.3645981344121072e-01  1.3646059110540382e-01  1.3646226877256329e-01  1.3646338281429435e-01  1.3646343452017487e-01  1.4245159008487204e-01  1.4245450665619896e-01  1.4245208144133473e-01  1.4244729037265552e-01  1.4244570673648124e-01  0.0000000000000000e+00  0.0000000000000000e+00  0.0000000000000000e+00  0.0000000000000000e+00  0.0000000000000000e+00  0.0000000000000000e+00  0.0000000000000000e+00  0.0000000000000000e+00  0.0000000000000000e+00  1.4247539774427509e-01  1.4247940460742820e-01  1.4247910849433360e-01  1.4247654814456528e-01  1.4247691486733138e-01  1.4851038183767984e-01  1.4849634860977670e-01  1.4847841044922100e-01  1.4847268107992861e-01  1.4847650046844485e-01  0.0000000000000000e+00  0.0000000000000000e+00  0.0000000000000000e+00  0.0000000000000000e+00  0.0000000000000000e+00  0.0000000000000000e+00  0.0000000000000000e+00  0.0000000000000000e+00  0.0000000000000000e+00  1.4851945239515549e-01  1.4850769876773476e-01  1.4849230459934690e-01  1.4848872173928443e-01  1.4849474533720697e-01  1.5467331917100097e-01  1.5449301166016605e-01  1.5449969280995438e-01  1.5448890728236828e-01  1.5436102511331612e-01  0.0000000000000000e+00  0.0000000000000000e+00  0.0000000000000000e+00  0.0000000000000000e+00  0.0000000000000000e+00  0.0000000000000000e+00  0.0000000000000000e+00  0.0000000000000000e+00  0.0000000000000000e+00  1.5466408723300598e-01  1.5449290391987963e-01  1.5449995120922008e-01  1.5448899466647853e-01  1.5436630462218048e-01  </DataArray> 
</PointData> 
</Piece>
</UnstructuredGrid>
</VTKFile>