<?xml version="1.0"?>
<VTKFile type="UnstructuredGrid"  version="0.1"  >
<UnstructuredGrid>
<Piece  NumberOfPoints="589" NumberOfCells="1080">
<Points>
<DataArray  type="Float64"  NumberOfComponents="3"  format="ascii">-9 0 0  -8 0 0  -7 0 0  -6 0 0  -5 0 0  -4 0 0  -3 0 0  -2 0 0  -1 0 0  0 0 0  1 0 0  2 0 0  3 0 0  4 0 0  5 0 0  6 0 0  7 0 0  8 0 0  9 0 0  -9 2 0  -8.000003472030706 1.999995061592684 0  -7.00000728997575 1.99999070128098 0  -6.000012232884124 1.999987384982472 0  -5.000020053368295 1.999985305839761 0  -4.000012240460587 1.999989113493741 0  -3.000004145394918 1.999992558827146 0  -2.000000088757454 1.99999572129528 0  -0.9999991848758258 1.999998218279982 0  -2.519874081524591e-07 1.999999322194744 0  0.9999985234196309 1.999998598798235 0  1.999998895018789 1.999996232542493 0  3.000002042255412 1.999993323357408 0  4.000008328178762 1.999990211701729 0  5.000017345672809 1.999988969482232 0  6.000010435469855 1.999989472265937 0  7.000006179984114 1.999991897119589 0  8.000002940850726 1.999995618715632 0  9 2 0  -9 4 0  -8.000005560367986 3.999987810937522 0  -7.000010080098324 3.999977226610827 0  -6.00001295544206 3.999969821396485 0  -5.000014319802338 3.999967102016421 0  -4.000003143113231 3.999968840733845 0  -2.999995533911857 3.999978299916916 0  -1.999993293582067 3.999990590955516 0  -0.9999957132366443 4.000000464384311 0  -6.835126479673878e-07 4.000004475808193 0  0.9999942214762652 4.000001467982369 0  1.999991379251846 3.999993228820837 0  2.999993158706756 3.999982068094184 0  4.000000261904812 3.999970894254087 0  5.00001092084698 3.99996728693253 0  6.000010252030085 3.9999712563343 0  7.000008294521101 3.999978607406401 0  8.00000468851564 3.999988598820389 0  9 4 0  -9 6 0  -8.000011811092083 5.999974141973907 0  -7.000019447759854 5.999951036073417 0  -6.000019721954478 5.999933515023256 0  -5.000011716491463 5.999924299330317 0  -3.999990240815762 5.999938244864289 0  -2.999980322553863 5.9999673010494 0  -1.999983837796385 5.999997740644403 0  -0.9999930315570711 6.000014675092155 0  -2.325973514932382e-06 6.000018134548639 0  0.9999893768883976 6.000012732062705 0  1.999983151247405 5.999997747723235 0  2.999980993944816 5.99997246589025 0  3.99998622037666 5.999946307183021 0  5.000004400412324 5.999933508090082 0  6.000015223361457 5.999939514243659 0  7.000017002886737 5.999954756929074 0  8.000010765982291 5.999975940439474 0  9 6 0  -9 8 0  -8.000034757593085 7.999949467386351 0  -7.000058264250906 7.999902509218778 0  -6.000059606529674 7.99986399024454 0  -5.000029415870467 7.999841942212688 0  -3.999988207125124 7.999906013032255 0  -2.999995534793686 7.999981301839997 0  -2.000010726629366 8.000018027116582 0  -1.000011844699912 8.000022265284441 0  -2.497063753005622e-06 8.000023490016094 0  1.000004606790678 8.000027081638386 0  2.000002095328638 8.000011930914185 0  2.999984764566709 7.999986053318922 0  3.999979241413681 7.999922214690216 0  5.000019500722912 7.999850282595444 0  6.000056366261005 7.999870830182764 0  7.000057774527146 7.999907146332386 0  8.000034957657833 7.999951780269995 0  9 8 0  -9 10 0  -8.000102693480036 9.99991050661257 0  -7.000185722697434 9.999820243776476 0  -6.000225608279873 9.999728611223869 0  -5.000189642298047 9.999635400431828 0  -4.000124469609646 9.999841795013147 0  -3.000134670765942 10.00001939947529 0  -2.000107932511057 9.999989081573936 0  -1.000050582028063 9.99997935905432 0  -8.306371841585907e-06 9.999976998855921 0  1.000033564742008 9.99997716606487 0  2.000089032683692 9.999976031121296 0  3.000138251534647 10.00003874378453 0  4.000132892201873 9.999872266130323 0  5.000206061793926 9.999652934696824 0  6.000239308154559 9.999739095094821 0  7.000195427757326 9.999826277581436 0  8.00010770007149 9.999913285192408 0  9 10 0  -9 12 0  -8.000249220169119 11.99987464826651 0  -7.000485647710348 11.99974349868473 0  -6.00069480727792 11.99959961701471 0  -5.000858777708475 11.99943332841678 0  -4.000825429227193 11.99980906179932 0  -3.000855075610914 12.00018112660233 0  -2.000589330659528 12.00013586632191 0  -1.000293794914093 12.00011113036492 0  1.311500666764283e-05 12.00010585740748 0  1.000323304501089 12.00012078373192 0  2.000630034343327 12.00016037875473 0  3.000919870790714 12.00023587314704 0  4.000889120062581 11.99983804695184 0  5.000910093995167 11.99943705080168 0  6.000730610104545 11.99960332474859 0  7.000508396512462 11.99974614102127 0  8.000260286871649 11.99987598161377 0  9 12 0  -9 14 0  -8.000446780909529 13.99986200905974 0  -7.000894426473949 13.99971772991565 0  -6.001344390069173 13.99956032048492 0  -5.001799705711026 13.9993818557346 0  -4.001804143734939 13.99982052325521 0  -3.00180640042721 14.00026478722169 0  -2.001190148453223 14.00020060506129 0  -1.000582618605931 14.00016509476165 0  2.144667902307412e-05 14.00015395998607 0  1.000627077100903 14.00016577685069 0  2.001238981236738 14.00020120132858 0  3.00186094648393 14.00026217980135 0  4.001866719574466 13.99982247123653 0  5.001869385887568 13.99938556100134 0  6.001392508086839 13.99956149066546 0  7.000924760533647 13.99971797020648 0  8.000461464790051 13.99986200133212 0  9 14 0  -9 16 0  -8.000640697122282 15.99987454101884 0  -7.001293627303671 15.99974452109711 0  -6.001972072856361 15.99960530347441 0  -5.002691507861105 15.99945218234432 0  -4.002716748383957 15.99982628654044 0  -3.002692393625672 16.00019837537977 0  -2.001756555805731 16.00015080455216 0  -1.00085779532795 16.0001216761661 0  2.352244732214488e-05 16.00011036327739 0  1.000905972123437 16.00011644484509 0  2.001808145927495 16.00013991290924 0  3.002749829728255 16.00018107876124 0  4.002777407973476 15.99981101999523 0  5.00275394415247 15.99944065331511 0  6.002017341754884 15.9995975276099 0  7.001322988366155 15.99973964254823 0  8.000655122749075 15.99987217689507 0  9 16 0  -9 18 0  -8.000785487079515 17.99990532136703 0  -7.001590415645947 17.99980812199245 0  -6.002435235681429 17.99970593089479 0  -5.003342424704489 17.9995963950257 0  -4.003380646076156 17.99982744938804 0  -3.00334352745439 18.00005818803106 0  -2.002175262650835 18.00002735497677 0  -1.001063487934762 18.00000712050257 0  2.105666012251109e-05 17.99999731212161 0  1.001106224920679 17.99999768730315 0  2.002219832887933 18.00000794841768 0  3.003391008856997 18.0000276874525 0  4.003430385564555 17.99980226301695 0  5.003393327433388 17.99957750105667 0  6.002472562166274 17.99969264637527 0  7.001614877840455 17.99979966454041 0  8.000797588279639 17.99990120718202 0  9 18 0  -9 20 0  -8.000852330232471 19.99994618134228 0  -7.001727280997152 19.99989169389856 0  -6.002648336283598 19.99983594684916 0  -5.003640710448211 19.99977850688783 0  -4.00368430431522 19.99982712640032 0  -3.003641117422815 19.9998754356236 0  -2.002368692242104 19.99986159886504 0  -1.001160586285735 19.99985095071279 0  1.608044714590671e-05 19.99984361703649 0  1.00119300961211 19.999839473168 0  2.002401884233556 19.99983815252669 0  3.00367553232784 19.99983902569783 0  4.003719496069882 19.9997976090398 0  5.003676410076097 19.99975666934037 0  6.002674827044974 19.99982028537982 0  7.001744799602071 19.99988159404239 0  8.00086104551538 19.99994123344172 0  8.999999999993671 19.99999999999844 0  -9 22 0  -8.000828524956386 21.99998971260143 0  -7.001679374739716 21.99998030277516 0  -6.002575570226372 21.99997273413237 0  -5.003541522532819 21.99996814397142 0  -4.003584115252002 21.99982502637405 0  -3.003541695488338 21.99968160483748 0  -2.002305534464139 21.99968311654909 0  -1.001132253483965 21.99968155401768 0  1.005215525215045e-05 21.99967719364541 0  1.001152332923433 21.99966999439777 0  2.002325523722202 21.99965960390214 0  3.003561483067934 21.99964535274653 0  4.00360357070267 21.99979580334142 0  5.003560826322965 21.9999465703356 0  6.002590264268669 21.99995715112708 0  7.00168926507498 21.99997019664688 0  8.000833496248855 21.99998474409235 0  9 22 0  -9 24 0  -8.000715250838571 24.00002973323166 0  -7.001449726387405 24.00006154610322 0  -6.002223179369169 24.00009760523356 0  -5.003056400018893 24.0001402542627 0  -4.003092999778949 23.99982149033012 0  -3.003056649977331 23.99950248790751 0  -2.001991523411307 23.99951690340583 0  -1.000980327473764 23.99952332238355 0  4.138574815818709e-06 23.99952209909119 0  1.000988356197249 23.99951325184666 0  2.001998792426031 23.99949646492446 0  3.003062604926749 23.99947108627683 0  4.003097737840123 23.99979629381179 0  5.003060522518124 24.00012173225259 0  6.002226869800353 24.00008415385724 0  7.001452464254108 24.00005278831604 0  8.000716700409248 24.00002541739849 0  9 24 0  -9 26 0  -8.000524886353508 26.00006143837109 0  -7.001063792171372 26.00012580514808 0  -6.001631097035354 26.00019611575204 0  -5.00224187119441 26.00027556219844 0  -4.002268729321343 25.999816898912 0  -3.002242444367133 25.99935807268365 0  -2.001462430951175 25.99938261466461 0  -1.000721772537218 25.99939559888474 0  -7.54160480944618e-07 25.99939743848537 0  1.000719852504827 25.99938820426472 0  2.001459261490703 25.99936762595383 0  3.002237143360252 25.99933509039101 0  4.002261579420465 25.99979851878829 0  5.002233773632517 26.00026209585852 0  6.001625909961083 26.00018630556368 0  7.001060747178905 26.00011940309886 0  8.000523485163219 26.00005827877461 0  9 26 0  -9 28 0  -8.000278222547479 28.00008143359108 0  -7.000563856402611 28.00016629084047 0  -6.000864504528881 28.00025808242705 0  -5.001188112086632 28.00036049418823 0  -4.001202724401587 27.99981170711969 0  -3.001189167028914 27.99926285252995 0  -2.000776545666797 27.99929449365345 0  -1.000384940614747 27.99931238948869 0  -3.97268899839835e-06 27.99931700629156 0  1.000376482208716 27.99930846591959 0  2.000766532529679 27.99928654577717 0  3.001176510230715 27.99925067847227 0  4.001187839839906 27.99980199963688 0  5.00117208582008 28.0003534094429 0  6.000853551190748 28.00025291103352 0  7.000557053123406 28.00016291095521 0  8.00027496
[...]
<PointData  Scalars="f_44-1"> 
<DataArray  type="Float64"  Name="f_44-1"  format="ascii">8.7046754341340996e-04  8.5967703200359865e-05  5.3049509105273868e-05  1.1989447910678731e-04  -1.0526443315938168e-03  0.0000000000000000e+00  0.0000000000000000e+00  0.0000000000000000e+00  0.0000000000000000e+00  0.0000000000000000e+00  0.0000000000000000e+00  0.0000000000000000e+00  0.0000000000000000e+00  0.0000000000000000e+00  8.8681878856001399e-04  8.5978636476317176e-05  5.3650782196031554e-05  1.1946519325442229e-04  -1.0780548121316054e-03  4.0677395673242217e-02  4.0721461774624441e-02  4.0702500908693318e-02  4.0594979027414428e-02  4.0535169563807837e-02  0.0000000000000000e+00  0.0000000000000000e+00  0.0000000000000000e+00  0.0000000000000000e+00  0.0000000000000000e+00  0.0000000000000000e+00  0.0000000000000000e+00  0.0000000000000000e+00  0.0000000000000000e+00  4.0817892497486519e-02  4.0861473403119478e-02  4.0841030197312798e-02  4.0731316863704820e-02  4.0671867458890995e-02  8.1410526781847611e-02  8.1407466956878588e-02  8.1383335417438626e-02  8.1373757973311617e-02  8.1386533449920404e-02  0.0000000000000000e+00  0.0000000000000000e+00  0.0000000000000000e+00  0.0000000000000000e+00  0.0000000000000000e+00  0.0000000000000000e+00  0.0000000000000000e+00  0.0000000000000000e+00  0.0000000000000000e+00  8.1684313882062556e-02  8.1679946587549471e-02  8.1655071196528983e-02  8.1647010887334240e-02  8.1666436241808776e-02  1.2211543845729785e-01  1.2211165575786541e-01  1.2210769187268213e-01  1.2210167474756074e-01  1.2208339341111503e-01  0.0000000000000000e+00  0.0000000000000000e+00  0.0000000000000000e+00  0.0000000000000000e+00  0.0000000000000000e+00  0.0000000000000000e+00  0.0000000000000000e+00  0.0000000000000000e+00  0.0000000000000000e+00  1.2253742663261759e-01  1.2251433729754679e-01  1.2250092606195365e-01  1.2249429821414688e-01  1.2248979043981151e-01  1.6283980558576555e-01  1.6283693503048316e-01  1.6283701534135664e-01  1.6282546471040898e-01  1.6281289209097616e-01  0.0000000000000000e+00  0.0000000000000000e+00  0.0000000000000000e+00  0.0000000000000000e+00  0.0000000000000000e+00  0.0000000000000000e+00  0.0000000000000000e+00  0.0000000000000000e+00  0.0000000000000000e+00  1.6336284740782664e-01  1.6334103623335214e-01  1.6331725114205217e-01  1.6330443647169743e-01  1.6330198838175997e-01  2.0354666083327438e-01  2.0354522382518084e-01  2.0356467393252375e-01  2.0361439002258619e-01  2.0372932201419078e-01  0.0000000000000000e+00  6.0042281966813049e-01  6.0039142540799717e-01  6.0057223145023420e-01  6.0062591111200281e-01  6.0058210866845640e-01  6.0038744110184328e-01  5.9980286177997100e-01  0.0000000000000000e+00  2.0417869975317943e-01  2.0412426289343033e-01  2.0408570643760895e-01  2.0407029994145159e-01  2.0406971841898860e-01  2.4418696434333359e-01  2.4418175940832923e-01  2.4419893454824040e-01  2.4423823627000235e-01  2.4426711458161443e-01  0.0000000000000000e+00  6.0058954534162057e-01  6.0073331638202532e-01  6.0081240745092845e-01  6.0081679506431440e-01  6.0078214055331769e-01  6.0070910563484581e-01  6.0070320647029452e-01  0.0000000000000000e+00  2.4484679728569161e-01  2.4479295636320575e-01  2.4478151400700757e-01  2.4477648053123802e-01  2.4478144950273426e-01  2.8474794262263481e-01  2.8473714412845003e-01  2.8474703821733138e-01  2.8477569527256752e-01  2.8481762339216798e-01  0.0000000000000000e+00  6.0121903473033966e-01  6.0122976624869118e-01  6.0122400625422856e-01  6.0121490658045951e-01  6.0118751892292488e-01  6.0113874244040677e-01  6.0107168897142427e-01  0.0000000000000000e+00  2.8544246670955453e-01  2.8543208288074201e-01  2.8543186697880152e-01  2.8543438133214766e-01  2.8544519540321384e-01  3.2523201957881992e-01  3.2521656683340205e-01  3.2522115858461947e-01  3.2524374753808749e-01  3.2527646252900089e-01  0.0000000000000000e+00  6.0166695266746462e-01  6.0170257329145038e-01  6.0171522257417009e-01  6.0170794631080426e-01  6.0167960384891250e-01  6.0162949447658443e-01  6.0156189782044278e-01  0.0000000000000000e+00  3.2606723501799756e-01  3.2605107572503533e-01  3.2604957382596250e-01  3.2605481291384558e-01  3.2606985208338674e-01  3.6563981657628680e-01  3.6562180346274925e-01  3.6562462789911171e-01  3.6564654602470537e-01  3.6568340071140698e-01  0.0000000000000000e+00  6.0222102131687394e-01  6.0226243563081860e-01  6.0228008231974117e-01  6.0227642440449958e-01  6.0225171819681189e-01  6.0220508049092925e-01  6.0213941364387669e-01  0.0000000000000000e+00  3.6668244392590016e-01  3.6664680532213378e-01  3.6663139175367809e-01  3.6663159740188944e-01  3.6664795674175321e-01  4.0596762288017901e-01  4.0594936275273380e-01  4.0595292118974186e-01  4.0597691188167123e-01  4.0601979089456203e-01  0.0000000000000000e+00  6.0285439774113292e-01  6.0290202443847918e-01  6.0292603144733292e-01  6.0292712484948296e-01  6.0290642450946652e-01  6.0286307527388916e-01  6.0279706015413492e-01  0.0000000000000000e+00  4.0722797270956634e-01  4.0717560855877172e-01  4.0714764789481234e-01  4.0714176374891131e-01  4.0715757467938024e-01  4.4621179437833974e-01  4.4619537233872825e-01  4.4620054309864082e-01  4.4622602623755353e-01  4.4627208873607910e-01  0.0000000000000000e+00  6.0357983912513025e-01  6.0362918560755330e-01  6.0365675056816548e-01  6.0366154672924832e-01  6.0364504518696926e-01  6.0360641128674242e-01  6.0354387856981706e-01  0.0000000000000000e+00  4.4767849687030509e-01  4.4761344330272229e-01  4.4757497636246663e-01  4.4756307431908754e-01  4.4757646151422564e-01  4.8637375616959577e-01  4.8636086653208893e-01  4.8636741000674871e-01  4.8639207618560248e-01  4.8643636566085546e-01  0.0000000000000000e+00  6.0439872956063712e-01  6.0444383413213865e-01  6.0447095789168204e-01  6.0447771004042472e-01  6.0446554696717436e-01  6.0443373768734954e-01  6.0437933011679534e-01  0.0000000000000000e+00  4.8801360766750651e-01  4.8794277061048064e-01  4.8789799255845201e-01  4.8788132441618109e-01  4.8789077628433880e-01  5.2646275049510693e-01  5.2645460101688279e-01  5.2646166998027377e-01  5.2648255131304988e-01  5.2651947121389042e-01  0.0000000000000000e+00  6.0530219892302684e-01  6.0533723991385346e-01  6.0535997471028524e-01  6.0536684714780431e-01  6.0535910737106624e-01  6.0533623812067594e-01  6.0529462143128065e-01  0.0000000000000000e+00  5.2822754926866644e-01  5.2815863815952158e-01  5.2811253615312104e-01  5.2809297412052358e-01  5.2809742327307063e-01  5.6649615164952827e-01  5.6649339394427423e-01  5.6649991222222529e-01  5.6651418066489179e-01  5.6653871791916333e-01  0.0000000000000000e+00  6.0627257757582198e-01  6.0629266799452664e-01  6.0630755586766227e-01  6.0631283313791684e-01  6.0630942532152676e-01  6.0629712592448126e-01  6.0627208355463025e-01  0.0000000000000000e+00  5.6832865646798447e-01  5.6826886356012862e-01  5.6822631039534688e-01  5.6820593866352376e-01  5.6820484153472128e-01  6.0649795190752487e-01  6.0650064413785076e-01  6.0650557613789546e-01  6.0651110597677793e-01  6.0651967972162246e-01  0.0000000000000000e+00  6.0728429304842624e-01  6.0728619536299966e-01  6.0729072048427946e-01  6.0729298004655086e-01  6.0729351528237729e-01  6.0729250846802940e-01  6.0728621472889854e-01  0.0000000000000000e+00  6.0833708284214205e-01  6.0829222427130825e-01  6.0825742715226394e-01  6.0823828391837198e-01  6.0823167196792061e-01  6.4649609723763113e-01  6.4650370680863134e-01  6.4650622202772279e-01  6.4650190526993012e-01  6.4649283008030478e-01  0.0000000000000000e+00  6.0830634894470759e-01  6.0828892863951511e-01  6.0828179044739794e-01  6.0828000183731756e-01  6.0828370608974980e-01  6.0829351183388380e-01  6.0830605718842146e-01  0.0000000000000000e+00  6.4828163057782673e-01  6.4825563477842818e-01  6.4823178424775751e-01  6.4821569084330555e-01  6.4820418026724413e-01  6.8651930392774341e-01  6.8653075795540486e-01  6.8653031446482649e-01  6.8651617579916391e-01  6.8648979520528830e-01  0.0000000000000000e+00  6.0930577419155052e-01  6.0927016396889488e-01  6.0925138879847107e-01  6.0924495003531653e-01  6.0925062615099557e-01  6.0926943162846436e-01  6.0929863002695706e-01  0.0000000000000000e+00  6.8819599845979496e-01  6.8819072265046355e-01  6.8817984652677500e-01  6.8816831923633226e-01  6.8815307484271715e-01  7.2659389047185585e-01  7.2660767863786335e-01  7.2660404370858256e-01  7.2658118746645073e-01  7.2653973313407461e-01  0.0000000000000000e+00  6.1025174530936988e-01  6.1020115655988660e-01  6.1017199437222069e-01  6.1016070498612285e-01  6.1016677438810596e-01  6.1019151351028100e-01  6.1023305915518633e-01  0.0000000000000000e+00  7.2811508155850224e-01  7.2813040123704798e-01  7.2813338696728003e-01  7.2812760430892298e-01  7.2811024772687372e-01  7.6674102145914369e-01  7.6675535852462273e-01  7.6674859955269326e-01  7.6671906305057513e-01  7.6666630402252689e-01  0.0000000000000000e+00  6.1111978217169893e-01  6.1105891011114732e-01  6.1102148435560466e-01  6.1100544110886001e-01  6.1101007437386068e-01  6.1103679173238612e-01  6.1108484032040133e-01  0.0000000000000000e+00  7.6807166792516746e-01  7.6810582357974355e-01  7.6812257242507986e-01  7.6812338714328932e-01  7.6810584876987620e-01  8.0697464913581551e-01  8.0698770115980756e-01  8.0697812192296348e-01  8.0694453112580178e-01  8.0688514163876590e-01  0.0000000000000000e+00  6.1189499516928580e-01  6.1182901701555870e-01  6.1178579276381817e-01  6.1176524085389139e-01  6.1176657328409922e-01  6.1179090234210165e-01  6.1183894939624606e-01  0.0000000000000000e+00  8.0809387307931135e-01  8.0814402065783097e-01  8.0817371904143787e-01  8.0818170487928687e-01  8.0816601941232880e-01  8.4730074114704557e-01  8.4731079707987833e-01  8.4729865118934478e-01  8.4726336802631330e-01  8.4720165783280654e-01  0.0000000000000000e+00  6.1257323019596810e-01  6.1250677723187907e-01  6.1245969726281457e-01  6.1243497596403618e-01  6.1243176659798504e-01  6.1245034478168014e-01  6.1249306981369900e-01  0.0000000000000000e+00  8.4820355135001613e-01  8.4826638966136469e-01  8.4830791572770425e-01  8.4832349485811154e-01  8.4831155922826229e-01  8.8771677762450363e-01  8.8772292323216695e-01  8.8770918428398926e-01  8.8767677672326484e-01  8.8761911865701026e-01  0.0000000000000000e+00  6.1316310281418929e-01  6.1309458516531778e-01  6.1304391632938060e-01  6.1301552170445950e-01  6.1300874212036049e-01  6.1302244638820813e-01  6.1305950736942294e-01  0.0000000000000000e+00  8.8841483750638761e-01  8.8848803890592909e-01  8.8854099217094140e-01  8.8856459720060332e-01  8.8855787284120002e-01  9.2821584402017898e-01  9.2821674428968393e-01  9.2819759124514689e-01  9.2816272000552091e-01  9.2810527358689288e-01  0.0000000000000000e+00  6.1365940989309353e-01  6.1359164096381891e-01  6.1354248114667242e-01  6.1351503797647533e-01  6.1350618163855442e-01  6.1350108928924274e-01  6.1351303493069942e-01  0.0000000000000000e+00  9.2873190672142480e-01  9.2882224989862150e-01  9.2888573709568478e-01  9.2891707650127053e-01  9.2891609133947617e-01  9.6879683152039719e-01  9.6879300221070563e-01  9.6876867280615708e-01  9.6872547695136635e-01  9.6862818739797729e-01  0.0000000000000000e+00  6.1403049880100136e-01  6.1402408949748177e-01  6.1395106495675245e-01  6.1391646697759050e-01  6.1392093958655691e-01  6.1399998198221106e-01  6.1414340195775707e-01  0.0000000000000000e+00  9.6921395955656597e-01  9.6928332538277284e-01  9.6935355098853748e-01  9.6938975692049723e-01  9.6939341665444745e-01  1.0094642331978854e+00  1.0094576074443680e+00  1.0094290439338036e+00  1.0093703818998800e+00  1.0092907507253333e+00  0.0000000000000000e+00  6.1492952825497826e-01  6.1434689510405260e-01  6.1415355996039966e-01  6.1410984525940315e-01  6.1416307593388264e-01  6.1434216773995942e-01  6.1431173279537954e-01  0.0000000000000000e+00  1.0097420393117622e+00  1.0098826545245618e+00  1.0099517056401555e+00  1.0099838267024395e+00  1.0099885651618494e+00  1.0502143777727506e+00  1.0502089498940181e+00  1.0501895827028196e+00  1.0501573021846629e+00  1.0501273362244214e+00  0.0000000000000000e+00  0.0000000000000000e+00  0.0000000000000000e+00  0.0000000000000000e+00  0.0000000000000000e+00  0.0000000000000000e+00  0.0000000000000000e+00  0.0000000000000000e+00  0.0000000000000000e+00  1.0506707337685384e+00  1.0506690764677624e+00  1.0506690117767294e+00  1.0506765048126674e+00  1.0506773240179730e+00  1.0910242961179115e+00  1.0910163623446414e+00  1.0910074189675054e+00  1.0909915546479529e+00  1.0909657591840689e+00  0.0000000000000000e+00  0.0000000000000000e+00  0.0000000000000000e+00  0.0000000000000000e+00  0.0000000000000000e+00  0.0000000000000000e+00  0.0000000000000000e+00  0.0000000000000000e+00  0.0000000000000000e+00  1.0914259918555056e+00  1.0914072649480679e+00  1.0914037607517784e+00  1.0914024395642190e+00  1.0913996722311816e+00  1.1318425415331703e+00  1.1318641349947840e+00  1.1318589056424000e+00  1.1318315671665413e+00  1.1318256038307677e+00  0.0000000000000000e+00  0.0000000000000000e+00  0.0000000000000000e+00  0.0000000000000000e+00  0.0000000000000000e+00  0.0000000000000000e+00  0.0000000000000000e+00  0.0000000000000000e+00  0.0000000000000000e+00  1.1321244790126288e+00  1.1321394744914046e+00  1.1321336324798730e+00  1.1321083824527896e+00  1.1321052263726714e+00  1.1728310823509478e+00  1.1727918283389582e+00  1.1726878881758043e+00  1.1726770430680782e+00  1.1727343184840100e+00  0.0000000000000000e+00  0.0000000000000000e+00  0.0000000000000000e+00  0.0000000000000000e+00  0.0000000000000000e+00  0.0000000000000000e+00  0.0000000000000000e+00  0.0000000000000000e+00  0.0000000000000000e+00  1.1729712937532348e+00  1.1729300583688318e+00  1.1728286902744667e+00  1.1728192579267060e+00  1.1728764388346460e+00  1.2146965570994408e+00  1.2134013007889375e+00  1.2134538447101044e+00  1.2134324727026022e+00  1.2125990124528581e+00  0.0000000000000000e+00  0.0000000000000000e+00  0.0000000000000000e+00  0.0000000000000000e+00  0.0000000000000000e+00  0.0000000000000000e+00  0.0000000000000000e+00  0.0000000000000000e+00  0.0000000000000000e+00  1.2146616873713987e+00  1.2134018558620459e+00  1.2134547608449402e+00  1.2134323532211908e+00  1.2126199013654773e+00  </DataArray> 
</PointData> 
</Piece>
</UnstructuredGrid>
</VTKFile>