<?xml version="1.0"?>
<VTKFile type="UnstructuredGrid"  version="0.1"  >
<UnstructuredGrid>
<Piece  NumberOfPoints="589" NumberOfCells="1080">
<Points>
<DataArray  type="Float64"  NumberOfComponents="3"  format="ascii">-9 0 0  -8 0 0  -7 0 0  -6 0 0  -5 0 0  -4 0 0  -3 0 0  -2 0 0  -1 0 0  0 0 0  1 0 0  2 0 0  3 0 0  4 0 0  5 0 0  6 0 0  7 0 0  8 0 0  9 0 0  -9 2 0  -7.999996155414864 2.000005157173957 0  -6.999992001117063 2.000009700682428 0  -5.999986783534868 2.000013133941675 0  -4.999978756739379 2.000015243190339 0  -3.999986934829163 2.000011303905479 0  -2.999995320718252 2.000007684508606 0  -1.99999948124642 2.000004332355719 0  -1.000000319493144 2.000001660507561 0  9.500519198247662e-07 2.000000410606166 0  1.000002477269009 2.000001008472957 0  2.000002506002406 2.000003222429753 0  2.999999907995042 2.000005865048535 0  3.999994464377054 2.000008421695179 0  4.999986813037281 2.00000858868857 0  5.999992425599089 2.00000870729739 0  6.999995626797026 2.000006903762697 0  7.999997936023597 2.000003787423146 0  9 2 0  -9.000000000009988 4 0  -7.999993549632642 4.000012769156467 0  -6.999988255364136 4.000023842474227 0  -5.999984803903427 4.000031563986431 0  -4.999983088550148 4.000034366446511 0  -3.999994704758525 4.000032331456748 0  -3.000002503439899 4.000022277740778 0  -2.000004627549807 4.000009287649174 0  -1.000001834019411 3.999998795966135 0  3.647601343910691e-06 3.999994357930851 0  1.00000932103147 3.999997042634693 0  2.000012799223328 4.000004900448275 0  3.000011725271928 4.000015464542795 0  4.00000541042555 4.000025641007608 0  4.99999552059826 4.000027550268473 0  5.999994496654174 4.000025103222649 0  6.999994821473761 4.000019058845222 0  7.999996853020441 4.000010259288639 0  9 4 0  -9 6 0  -7.999986319208182 6.000027165178777 0  -6.999977138350933 6.000051392115548 0  -5.999975879861704 6.000069670828914 0  -4.9999834927108 6.000079153893453 0  -4.000005801384851 6.0000640578966 0  -3.00001585732041 6.000033170151382 0  -2.000011607072134 6.000000942846199 0  -1.000001495874237 5.999983181895613 0  8.505609048973405e-06 5.999979437844343 0  1.000017311017174 5.999984571324369 0  2.000023976723996 5.999999108096172 0  3.000026644667848 6.000023700554949 0  4.000022000648389 6.000048808708772 0  5.000004313746842 6.000060181846458 0  5.999991172610285 6.00005588897385 0  6.999987189093519 6.000042235187086 0  7.999991308086443 6.000022570583069 0  9 6 0  -9 8 0  -7.999961086350014 8.000053317288886 0  -6.999934330686189 8.00010273796472 0  -5.999931469892065 8.000142963460052 0  -4.999962412556559 8.0001652642057 0  -4.000005790351743 8.000096649134473 0  -2.999996589058362 8.00001634102118 0  -1.999979313936326 7.999977959063193 0  -0.9999775139234426 7.999974549691169 0  1.280294597931164e-05 7.999973713094996 0  1.000005236552997 7.999969873929638 0  2.00000758325968 7.99998431730705 0  3.000025288711153 8.00000900971142 0  4.000031246820012 8.000071882699611 0  4.999991097602773 8.000143005228418 0  5.999951215833835 8.000124122476331 0  6.999947144265043 8.000089457834333 0  7.999967469498314 8.000046508024349 0  9 8 0  -9 10 0  -7.999887205494974 10.00009506868155 0  -6.999795927850369 10.00019088438413 0  -5.999751830625161 10.00028798777691 0  -4.99979054794811 10.00038645620772 0  -3.999860096184432 10.00016305952037 0  -2.999846671667992 9.999971459452949 0  -1.999873677648671 10.00000745696804 0  -0.9999344939002111 10.0000190787193 0  2.158395339708005e-05 10.00002190685992 0  0.9999785773869543 10.00002139687585 0  1.999922048864917 10.00002139699943 0  2.999871340214498 9.999955578660179 0  3.999876737066625 10.00012145230362 0  4.99980378935174 10.0003407275668 0  5.999767988105932 10.00025550619279 0  6.999809493636864 10.00016983360901 0  7.999894797975357 10.00008468609137 0  9 10 0  -9 12 0  -7.999727181922011 12.000133859781 0  -6.999468680619418 12.00027392709396 0  -5.999240696702645 12.00042763428792 0  -4.999063196600851 12.00060538178153 0  -3.999099303748057 12.00019506758933 0  -2.999065117675005 11.99978837450944 0  -1.999335752102869 11.99984127558914 0  -0.9996409131329219 11.99987197431166 0  3.983698102648728e-05 11.99988170473399 0  0.9997152937333448 11.99986992514148 0  1.999392307639827 11.99983224255985 0  2.99908409156103 11.99975735266329 0  3.999114497908603 12.00015409934536 0  4.99909510438613 12.00055373019969 0  5.999275389262064 12.00038874539649 0  6.999496576521902 12.00024814014895 0  7.999742492685439 12.0001210375506 0  9 12 0  -9 14 0  -7.999509734245827 14.00014785252878 0  -6.999019112497859 14.00030246532707 0  -5.998527197651659 14.00047119988453 0  -4.998031345649048 14.00066259206709 0  -3.998026940610463 14.00017861935929 0  -2.998022212029554 13.9996882835774 0  -1.998660015858058 13.99976396138018 0  -0.9992911221618404 13.99980879437817 0  7.926696729471131e-05 13.99982758658538 0  0.9994459611693375 13.9998221169039 0  1.998803856509997 13.99979198988081 0  2.998148562394237 13.99973546750672 0  3.99814130619164 14.00016756848775 0  4.998140699121295 14.00059653195511 0  5.998618867471847 14.00042456797841 0  6.999084562088091 14.00027249612919 0  7.999543710802278 14.0001331612362 0  9 14 0  -9 16 0  -7.999293494270263 16.00013482561069 0  -6.998574361145469 16.00027456148173 0  -5.997828876012069 16.0004242020648 0  -4.99704094547273 16.00058880856013 0  -3.997014113891189 16.00016869750404 0  -2.997038240203231 15.9997505861207 0  -1.998011613206579 15.99981019052855 0  -0.9989475685655221 15.99984990859104 0  0.0001334513731433128 15.99987063229299 0  0.999212024270261 15.99987305036598 0  1.998268621376523 15.9998574287113 0  2.997282396996506 15.99982370663632 0  3.997252995729327 16.00017709903826 0  4.997278913280575 16.00053060298282 0  5.998011715154309 16.00038088771908 0  6.998698416572634 16.00024595018907 0  7.999356181995355 16.00012061396736 0  9 16 0  -9 18 0  -7.999127534921786 18.00010216333335 0  -6.99823460616862 18.00020706075789 0  -5.997299680058845 18.00031737529367 0  -4.996299034314658 18.00043565506537 0  -3.99625802512822 18.00016451130726 0  -2.996295997508862 17.9998935265122 0  -1.99751356340092 17.99993610036577 0  -0.9986722514849348 17.99996713579734 0  0.0001973797584785099 17.99998703338181 0  0.9990662304530027 17.99999627123956 0  1.997905235993178 17.99999539071925 0  2.996683969091902 17.99998505456052 0  3.996642990953934 18.00018449380472 0  4.996682435295911 18.00038305477168 0  5.9975883726303 18.00027813682157 0  6.998427648079946 18.00018102341103 0  7.999224237334232 18.00008918579999 0  9 18 0  -9 20 0  -7.999043216335703 20.00005856082997 0  -6.998062421349198 20.000117895867 0  -5.997032677455527 20.00017869770217 0  -4.995927182340599 20.000241486451 0  -3.99588016679143 20.00016262574129 0  -2.995924951214001 20.00008386053536 0  -1.997251779488242 20.00010825942467 0  -0.9985105765697742 20.00012901134276 0  0.0002643899461181368 20.0001461699179 0  0.999040101262513 20.00016005780406 0  1.997783586756932 20.00017125909597 0  2.996460726895879 20.00018064200109 0  3.996415640298595 20.00018825871006 0  4.996460596370058 20.00019513378813 0  5.997431074481055 20.00014417813916 0  6.998327257731177 20.00009499824529 0  7.999175412108306 20.00004714684676 0  8.999999999967711 20.00000000000134 0  -9 22 0  -7.999054747467889 22.00001185644735 0  -6.998085619281268 22.00002286069739 0  -5.997067993026277 22.00003206955633 0  -4.995975747779403 22.00003835567962 0  -3.995929647236931 22.00016306691304 0  -2.99597411125033 22.00028779710079 0  -1.997262868849551 22.00029503731378 0  -0.998484320762354 22.00030529351511 0  0.0003284039344620904 22.00031842133062 0  0.9991431994470205 22.00033461912566 0  1.997928023378302 22.00035442220377 0  2.996649938593764 22.00037870971904 0  3.996607291964077 22.00018941274979 0  4.996651016254449 21.99999947774046 0  5.997570375064599 22.00000311606263 0  6.998418637955639 22.0000036570629 0  7.999220692592421 22.00000228447848 0  9 22 0  -9 24 0  -7.999161585942133 23.99996855932378 0  -6.998302395751747 23.99993500382693 0  -5.99740109859479 23.99989712600052 0  -4.996435237058388 23.99985253540232 0  -3.996395478240613 24.00016512379339 0  -2.996434131306088 24.00047761254919 0  -1.997543893178706 24.00046972220049 0  -0.9985951026044381 24.00047006085863 0  0.0003841456942556322 24.0004783631496 0  0.9993665374951124 24.00049472638581 0  1.998324830164393 24.00051960893884 0  2.997231144144803 24.00055383328799 0  3.997196005456682 24.00018823187642 0  4.997233065180171 23.99982204341088 0  5.997993492864375 23.99987444458804 0  6.998694515470048 23.99991997112913 0  7.999356809422176 23.99996106931638 0  9 24 0  -9 26 0  -7.999351311553966 25.99993372358334 0  -6.998687171977974 25.99986443438949 0  -5.997991767490048 25.99978902766302 0  -4.997248527581965 25.99970421770785 0  -3.997219140542021 26.00016815918829 0  -2.997247817454314 26.00063191443925 0  -1.998059802774869 26.00061142757643 0  -0.9988280201949087 26.00060290905602 0  0.0004273438909236787 26.00060599453527 0  0.9996866395371982 26.00062068655688 0  1.99893029488439 26.00064735393045 0  2.998138352889114 26.00068673253501 0  3.998114425342274 26.00018512608602 0  4.998140873398771 25.99968302119029 0  5.99865365197601 25.99977327957668 0  6.999124954677239 25.99985400568776 0  7.999569167939998 25.99992852999797 0  9 26 0  -9 28 0  -7.999602596867066 27.99991094175983 0  -6.999196558058173 27.99981833398333 0  -5.998773074330564 27.99971853643197 0  -4.998322944343593 27.99960772917064 0  -3.998306549502284 28.00017166420045 0  -2.998322402648104 28.00073534868481 0  -1.998751439674354 28.00070519546748 0  -0.9991555566070984 28.00068927358592 0  0.0004548473358536506 28.00068712923049 0  1.000069668216396 28.00069867241333 0  1.99967888116165 28.00072417672794 0  2.999272323718677 28.00076427953937 0  3.999261981554894 28.00018061823434 0  4.999275286633114 27.99959656329052 0  5.999479099554595 27.99971025712628 0  6.999663361333589 27.99981285886893 
[...]
<PointData  Scalars="f_44-1"> 
<DataArray  type="Float64"  Name="f_44-1"  format="ascii">-1.2642210733380850e-03  -1.3369652230664147e-04  -4.8376706272616460e-05  -1.4231097120768183e-04  1.6746559422700547e-03  0.0000000000000000e+00  0.0000000000000000e+00  0.0000000000000000e+00  0.0000000000000000e+00  0.0000000000000000e+00  0.0000000000000000e+00  0.0000000000000000e+00  0.0000000000000000e+00  0.0000000000000000e+00  -1.2949269824534290e-03  -1.0419605217205403e-04  -2.0811096184789054e-05  -1.3182670465846665e-04  1.7186950217138845e-03  -4.5200518582659145e-02  -4.5227766619780223e-02  -4.5147240301148972e-02  -4.4992813042122319e-02  -4.4830742544923224e-02  0.0000000000000000e+00  0.0000000000000000e+00  0.0000000000000000e+00  0.0000000000000000e+00  0.0000000000000000e+00  0.0000000000000000e+00  0.0000000000000000e+00  0.0000000000000000e+00  0.0000000000000000e+00  -4.5855018271084583e-02  -4.5902514620529862e-02  -4.5831423764610080e-02  -4.5654200833067080e-02  -4.5472844765866854e-02  -9.0362261360447824e-02  -9.0371593686892515e-02  -9.0363026969261587e-02  -9.0339045302033238e-02  -9.0329240485444148e-02  0.0000000000000000e+00  0.0000000000000000e+00  0.0000000000000000e+00  0.0000000000000000e+00  0.0000000000000000e+00  0.0000000000000000e+00  0.0000000000000000e+00  0.0000000000000000e+00  0.0000000000000000e+00  -9.1651779104524406e-02  -9.1630214774486449e-02  -9.1594776247421641e-02  -9.1578723421757754e-02  -9.1590848875908085e-02  -1.3552399981193217e-01  -1.3550781486862937e-01  -1.3547262476181249e-01  -1.3543278436267392e-01  -1.3539036131599230e-01  0.0000000000000000e+00  0.0000000000000000e+00  0.0000000000000000e+00  0.0000000000000000e+00  0.0000000000000000e+00  0.0000000000000000e+00  0.0000000000000000e+00  0.0000000000000000e+00  0.0000000000000000e+00  -1.3743488092596520e-01  -1.3740978499577960e-01  -1.3740269021246113e-01  -1.3739959891233219e-01  -1.3740141773481121e-01  -1.8076009163182732e-01  -1.8075469226944041e-01  -1.8074762377018874e-01  -1.8072100995377724e-01  -1.8070349890967230e-01  0.0000000000000000e+00  0.0000000000000000e+00  0.0000000000000000e+00  0.0000000000000000e+00  0.0000000000000000e+00  0.0000000000000000e+00  0.0000000000000000e+00  0.0000000000000000e+00  0.0000000000000000e+00  -1.8325414819054078e-01  -1.8322074944182082e-01  -1.8319416668136337e-01  -1.8318495653171560e-01  -1.8317730285521294e-01  -2.2602644419896228e-01  -2.2602454051608697e-01  -2.2603006250498403e-01  -2.2604729106288063e-01  -2.2617170667582415e-01  0.0000000000000000e+00  -6.6217615984315192e-01  -6.6215621532817404e-01  -6.6247458733420461e-01  -6.6258093558311026e-01  -6.6247690360381084e-01  -6.6210470938835486e-01  -6.6121401515759204e-01  0.0000000000000000e+00  -2.2898632184124923e-01  -2.2892905244420581e-01  -2.2892743984206795e-01  -2.2893814853342201e-01  -2.2893371532297965e-01  -2.7128911703884617e-01  -2.7127781994273104e-01  -2.7125154580877814e-01  -2.7120330221113420e-01  -2.7117898992880768e-01  0.0000000000000000e+00  -6.6253862040812361e-01  -6.6281395666416876e-01  -6.6296093991283844e-01  -6.6296737718804499e-01  -6.6289070460336841e-01  -6.6274711974391720e-01  -6.6266891617575330e-01  0.0000000000000000e+00  -2.7454256640297259e-01  -2.7454523340887976e-01  -2.7464621412418344e-01  -2.7470532721661617e-01  -2.7471637021720158e-01  -3.1658821419247457e-01  -3.1656547817761826e-01  -3.1651309981782783e-01  -3.1642993151395232e-01  -3.1640226461487420e-01  0.0000000000000000e+00  -6.6377068821383667e-01  -6.6379641856709948e-01  -6.6379248134147506e-01  -6.6377124015773414e-01  -6.6370851807342712e-01  -6.6359418680999060e-01  -6.6344808616664752e-01  0.0000000000000000e+00  -3.2027389031955367e-01  -3.2035751297108955e-01  -3.2049322564445842e-01  -3.2057182422760766e-01  -3.2059895155461848e-01  -3.6194919512112961e-01  -3.6191930555707358e-01  -3.6186441187060120e-01  -3.6179068790011015e-01  -3.6177207392612215e-01  0.0000000000000000e+00  -6.6469655132658689e-01  -6.6478141679908775e-01  -6.6481220704509614e-01  -6.6479285752307826e-01  -6.6472263419665867e-01  -6.6459929528235206e-01  -6.6442650438399176e-01  0.0000000000000000e+00  -3.6635121339239929e-01  -3.6639675550061795e-01  -3.6650501125613832e-01  -3.6657348438460730e-01  -3.6660358986718855e-01  -4.0734358008612109e-01  -4.0731291279845333e-01  -4.0727957007884619e-01  -4.0725567260504397e-01  -4.0728729468001595e-01  0.0000000000000000e+00  -6.6588299612748636e-01  -6.6598291574283042e-01  -6.6602584904519901e-01  -6.6601319273853710e-01  -6.6594543128301942e-01  -6.6581994721106530e-01  -6.6564400444469729e-01  0.0000000000000000e+00  -4.1264520667686594e-01  -4.1259999984151491e-01  -4.1262692998042838e-01  -4.1265330489082397e-01  -4.1268079103479893e-01  -4.5269332812671698e-01  -4.5266755448286017e-01  -4.5267093582591866e-01  -4.5271824758761564e-01  -4.5281529925756109e-01  0.0000000000000000e+00  -6.6730657325653342e-01  -6.6741886371129988e-01  -6.6747134862104351e-01  -6.6746368023958069e-01  -6.6739903448375615e-01  -6.6727531796386119e-01  -6.6709303556774469e-01  0.0000000000000000e+00  -4.5892934260255153e-01  -4.5878783566102033e-01  -4.5871719298973701e-01  -4.5868988634221280e-01  -4.5871064666609851e-01  -4.9789544037990574e-01  -4.9787860298581993e-01  -4.9792378759820194e-01  -4.9804514277383866e-01  -4.9820336545142141e-01  0.0000000000000000e+00  -6.6899545787947279e-01  -6.6910439457840876e-01  -6.6915723836071073e-01  -6.6915232452222406e-01  -6.6909291721673780e-01  -6.6897729875652845e-01  -6.6880249723219665e-01  0.0000000000000000e+00  -5.0501320245806602e-01  -5.0478308656995785e-01  -5.0461570510462561e-01  -5.0453418194882571e-01  -5.0454455964294331e-01  -5.4284855847404034e-01  -5.4284295362878299e-01  -5.4292671138683768e-01  -5.4311090418716923e-01  -5.4331359423067982e-01  0.0000000000000000e+00  -6.7094391447726376e-01  -6.7103253381785544e-01  -6.7107473421576935e-01  -6.7106804391031893e-01  -6.7101542422172034e-01  -6.7091615733753918e-01  -6.7076418614510314e-01  0.0000000000000000e+00  -5.5071888958743342e-01  -5.5042180316140787e-01  -5.5017284846057823e-01  -5.5004424607057301e-01  -5.5004188117262320e-01  -5.8747394509045858e-01  -5.8748013922428621e-01  -5.8759308641711017e-01  -5.8781916664843648e-01  -5.8804194636727491e-01  0.0000000000000000e+00  -6.7311018968497249e-01  -6.7316350366973310e-01  -6.7318548149514623e-01  -6.7317336819611329e-01  -6.7312932317088703e-01  -6.7305371772567202e-01  -6.7293813658818380e-01  0.0000000000000000e+00  -5.9591015197186425e-01  -5.9557596432320892e-01  -5.9527071220674588e-01  -5.9510795552022178e-01  -5.9509236512422048e-01  -6.3172937820376140e-01  -6.3174653509666545e-01  -6.3187533892122949e-01  -6.3211664268486123e-01  -6.3233177318340417e-01  0.0000000000000000e+00  -6.7542643578833783e-01  -6.7543396087006491e-01  -6.7542903940893495e-01  -6.7540884578254179e-01  -6.7537447978016063e-01  -6.7532743991975719e-01  -6.7525793681149671e-01  0.0000000000000000e+00  -6.4050641784040085e-01  -6.4016867947747391e-01  -6.3983836696397278e-01  -6.3965804288858419e-01  -6.3963049232814939e-01  -6.7561735340666051e-01  -6.7564310509509595e-01  -6.7577239416961821e-01  -6.7600024894813648e-01  -6.7618055453682502e-01  0.0000000000000000e+00  -6.7780820672800557e-01  -6.7776530518391165e-01  -6.7773043654888343e-01  -6.7770074795298874e-01  -6.7767623712060754e-01  -6.7765942034927029e-01  -6.7764016925613557e-01  0.0000000000000000e+00  -6.8448970659497888e-01  -6.8418174101467466e-01  -6.8385977191634673e-01  -6.8368007121329688e-01  -6.8364321849861132e-01  -7.1918426539492641e-01  -7.1921585231516594e-01  -7.1933036443778875e-01  -7.1951779233326696e-01  -7.1964020807493834e-01  0.0000000000000000e+00  -6.8016647703766353e-01  -6.8007465807743039e-01  -6.8001049476814635e-01  -6.7997112901841295e-01  -6.7995555092110682e-01  -6.7996707626812902e-01  -6.7999625867626412e-01  0.0000000000000000e+00  -7.2790557629711639e-01  -7.2765675965993259e-01  -7.2737507186851480e-01  -7.2721390000548969e-01  -7.2717137830697176e-01  -7.6251931097269998e-01  -7.6255202031373148e-01  -7.6263825108640970e-01  -7.6276331248322782e-01  -7.6281149871110898e-01  0.0000000000000000e+00  -6.8241900485192974e-01  -6.8228533041361850e-01  -6.8219575527194487e-01  -6.8214754298542568e-01  -6.8213887077458213e-01  -6.8217358567912811e-01  -6.8224377544418613e-01  0.0000000000000000e+00  -7.7085660896387875e-01  -7.7068967298732927e-01  -7.7047599861023186e-01  -7.7034903722632042e-01  -7.7030499380312134e-01  -8.0573704454304307e-01  -8.0577008102122927e-01  -8.0581864690585225e-01  -8.0586460901194601e-01  -8.0582987379158766e-01  0.0000000000000000e+00  -6.8449940220395034e-01  -6.8433518698960660e-01  -6.8422637700309774e-01  -6.8417079899368172e-01  -6.8416606503103439e-01  -6.8421619526276656e-01  -6.8431552438930021e-01  0.0000000000000000e+00  -8.1349092575407222e-01  -8.1342124008283334e-01  -8.1329522965537071e-01  -8.1321447784872647e-01  -8.1317320939791915e-01  -8.4897961741357220e-01  -8.4900299427118286e-01  -8.4900388212154554e-01  -8.4896666365013185e-01  -8.4885375882251912e-01  0.0000000000000000e+00  -6.8636307742246327e-01  -6.8618188486000786e-01  -6.8606117799454946e-01  -6.8600001891428974e-01  -6.8599565407282148e-01  -6.8605186414042452e-01  -6.8616558870370714e-01  0.0000000000000000e+00  -8.5599312964044605e-01  -8.5601828384973633e-01  -8.5599177499475687e-01  -8.5596509814714183e-01  -8.5593058519847354e-01  -8.9236472615620754e-01  -8.9238461997508778e-01  -8.9234880945368245e-01  -8.9223562940172152e-01  -8.9205211560569897e-01  0.0000000000000000e+00  -6.8798936582604753e-01  -6.8780508539227103e-01  -6.8767968521396938e-01  -6.8761427067389636e-01  -6.8760619811770041e-01  -6.8765875370164486e-01  -6.8777153574715377e-01  0.0000000000000000e+00  -8.9852614969634947e-01  -8.9866067917046122e-01  -8.9873655864807511e-01  -8.9876417107634854e-01  -8.9873941943505586e-01  -9.3603526600538922e-01  -9.3604826594945745e-01  -9.3596408694583666e-01  -9.3576990101123336e-01  -9.3553073276192089e-01  0.0000000000000000e+00  -6.8938088386906760e-01  -6.8920516771426876e-01  -6.8907987017729100e-01  -6.8901182824765062e-01  -6.8899824618998839e-01  -6.8903962762666837e-01  -6.8913801606540948e-01  0.0000000000000000e+00  -9.4134589306437100e-01  -9.4152899492887221e-01  -9.4168668155055091e-01  -9.4176617929977779e-01  -9.4175363803649981e-01  -9.8006889821010179e-01  -9.8004943561652946e-01  -9.7993374098077413e-01  -9.7972260179061155e-01  -9.7948377512288876e-01  0.0000000000000000e+00  -6.9056648461688697e-01  -6.9039463533095735e-01  -6.9027195662119667e-01  -6.9020167490041218e-01  -6.9018145497614125e-01  -6.9021068976553157e-01  -6.9029366477780285e-01  0.0000000000000000e+00  -9.8444588928026022e-01  -9.8473142698902949e-01  -9.8498007043828262e-01  -9.8510101733529587e-01  -9.8510103969101448e-01  -1.0244360988345276e+00  -1.0244621170641697e+00  -1.0243576306046323e+00  -1.0241224188973597e+00  -1.0238508278015537e+00  0.0000000000000000e+00  -6.9153167722646725e-01  -6.9138620696963693e-01  -6.9127211734372940e-01  -6.9120908995546804e-01  -6.9118724277447463e-01  -6.9118270451673613e-01  -6.9120724359454810e-01  0.0000000000000000e+00  -1.0281523159038704e+00  -1.0284494715015076e+00  -1.0287174151645946e+00  -1.0288679519824053e+00  -1.0288819662301059e+00  -1.0694575872587229e+00  -1.0693847060657040e+00  -1.0692060851523402e+00  -1.0689160202236472e+00  -1.0685981406842242e+00  0.0000000000000000e+00  -6.9230827635826908e-01  -6.9222814681440192e-01  -6.9208472536686960e-01  -6.9200779050635908e-01  -6.9201378046863971e-01  -6.9215930613176646e-01  -6.9243283894569485e-01  0.0000000000000000e+00  -1.0724601194340351e+00  -1.0726941272211254e+00  -1.0729664641533270e+00  -1.0730912712282812e+00  -1.0730997212807460e+00  -1.1143608593567758e+00  -1.1143986324149531e+00  -1.1143345707781427e+00  -1.1142110976583408e+00  -1.1140220535958938e+00  0.0000000000000000e+00  -6.9374985121128563e-01  -6.9286875880804799e-01  -6.9249835434723062e-01  -6.9239376550307252e-01  -6.9249929334514515e-01  -6.9281433148582017e-01  -6.9279374867771959e-01  0.0000000000000000e+00  -1.1168978976309367e+00  -1.1172915511932013e+00  -1.1175539408364421e+00  -1.1177317448010335e+00  -1.1177812079190310e+00  -1.1603889439758424e+00  -1.1603398156633686e+00  -1.1602350807784589e+00  -1.1600309089888707e+00  -1.1598991233779130e+00  0.0000000000000000e+00  0.0000000000000000e+00  0.0000000000000000e+00  0.0000000000000000e+00  0.0000000000000000e+00  0.0000000000000000e+00  0.0000000000000000e+00  0.0000000000000000e+00  0.0000000000000000e+00  -1.1629150347339194e+00  -1.1629005243169701e+00  -1.1629129476821161e+00  -1.1628521523607636e+00  -1.1628183011797342e+00  -1.2055293344438691e+00  -1.2055051806653643e+00  -1.2054864748125917e+00  -1.2055673499898081e+00  -1.2055327702599028e+00  0.0000000000000000e+00  0.0000000000000000e+00  0.0000000000000000e+00  0.0000000000000000e+00  0.0000000000000000e+00  0.0000000000000000e+00  0.0000000000000000e+00  0.0000000000000000e+00  0.0000000000000000e+00  -1.2075857036555206e+00  -1.2075542970396949e+00  -1.2075707003060334e+00  -1.2076979692277796e+00  -1.2077152971356906e+00  -1.2519274590073604e+00  -1.2519892950736125e+00  -1.2519723638399471e+00  -1.2517430603681967e+00  -1.2517564355939719e+00  0.0000000000000000e+00  0.0000000000000000e+00  0.0000000000000000e+00  0.0000000000000000e+00  0.0000000000000000e+00  0.0000000000000000e+00  0.0000000000000000e+00  0.0000000000000000e+00  0.0000000000000000e+00  -1.2533671011343830e+00  -1.2534050950136255e+00  -1.2533816823280999e+00  -1.2531554135676735e+00  -1.2531747511058882e+00  -1.2979823425971564e+00  -1.2976008116419564e+00  -1.2971693317926665e+00  -1.2971168804484725e+00  -1.2970666425424082e+00  0.0000000000000000e+00  0.0000000000000000e+00  0.0000000000000000e+00  0.0000000000000000e+00  0.0000000000000000e+00  0.0000000000000000e+00  0.0000000000000000e+00  0.0000000000000000e+00  0.0000000000000000e+00  -1.2986871522637458e+00  -1.2983012549728168e+00  -1.2978770083026165e+00  -1.2978277379672265e+00  -1.2977790005357897e+00  -1.3448838227346018e+00  -1.3424182674642728e+00  -1.3429517907612132e+00  -1.3429710529525953e+00  -1.3412300308494962e+00  0.0000000000000000e+00  0.0000000000000000e+00  0.0000000000000000e+00  0.0000000000000000e+00  0.0000000000000000e+00  0.0000000000000000e+00  0.0000000000000000e+00  0.0000000000000000e+00  0.0000000000000000e+00  -1.3447987538511628e+00  -1.3424268443041460e+00  -1.3429554170441498e+00  -1.3429720800815181e+00  -1.3412750211586619e+00  </DataArray> 
</PointData> 
</Piece>
</UnstructuredGrid>
</VTKFile>