<?xml version="1.0"?>
<VTKFile type="UnstructuredGrid"  version="0.1"  >
<UnstructuredGrid>
<Piece  NumberOfPoints="589" NumberOfCells="1080">
<Points>
<DataArray  type="Float64"  NumberOfComponents="3"  format="ascii">-9 0 0  -8 0 0  -7 0 0  -6 0 0  -5 0 0  -4 0 0  -3 0 0  -2 0 0  -1 0 0  0 0 0  1 0 0  2 0 0  3 0 0  4 0 0  5 0 0  6 0 0  7 0 0  8 0 0  9 0 0  -9 2 0  -7.999999107453908 2.000000867121496 0  -6.999998203172089 2.000001634203974 0  -5.999997210014275 2.00000222071635 0  -4.999995908435724 2.000002591308784 0  -3.99999731305647 2.000001870966684 0  -2.99999867972866 2.000001233340931 0  -1.999999339960443 2.000000648029971 0  -0.9999994437011079 2.00000016142555 0  8.33881680288898e-07 1.999999869102424 0  1.000001244541271 1.999999806966833 0  2.000001586395439 1.999999902352817 0  3.00000177956915 1.999999939330914 0  4.000001936047977 1.999999694933604 0  5.000002342635748 1.999998693103564 0  6.000001814474348 1.999999279105229 0  7.000001207141178 1.999999653989093 0  8.000000596762929 1.999999869320548 0  9 2 0  -9.000000000004983 4 0  -7.999998261848251 4.000002134402683 0  -6.999996761846325 4.000003990691501 0  -5.999995653710799 4.000005305114286 0  -4.999994949689527 4.000005844220563 0  -3.999996781024555 4.000005238248001 0  -2.999997934149385 4.000003457315319 0  -1.999998151027751 4.000001252445166 0  -0.999997562996827 3.999999430447614 0  3.466732267247772e-06 3.999998490164061 0  1.000004587757773 3.999998455854268 0  2.000005523725735 3.999998949603259 0  3.000006026020873 3.999999539977132 0  4.000006037041835 3.999999697642333 0  5.000005654149713 3.999998258397274 0  6.000003945631232 3.999999402684773 0  7.000002426459753 3.999999946189211 0  8.000001139062762 4.000000077249611 0  9 4 0  -9 6 0  -7.999996463615461 6.000004514153481 0  -6.999993753052202 6.000008514655654 0  -5.999992480951545 6.000011490788752 0  -4.999992782620434 6.000013000975525 0  -3.999996169704086 6.000010098573291 0  -2.999997501241499 6.000004760110061 0  -1.99999637453054 5.99999933562108 0  -0.9999944149628649 5.999996499423538 0  7.320467711592556e-06 5.999995774693341 0  1.00000871899966 5.999996067637098 0  2.000009810840762 5.999997227186873 0  3.000010540769978 5.999999255602381 0  4.000010548173767 6.000000985533514 0  5.000009035909749 6.000000819906707 0  6.000005319388989 6.000001929405217 0  7.000002718673943 6.000001888169748 0  8.00000108802263 6.00000111841998 0  9 6 0  -9 8 0  -7.999991361901041 8.000008948572253 0  -6.99998499038601 8.000017136157473 0  -5.99998301311718 8.000023540297738 0  -4.999987070432877 8.000026498866657 0  -3.999994098114025 8.00001422293095 0  -2.999991250479682 8.000000221324839 0  -1.99998729962155 7.99999425307805 0  -0.9999864760859315 7.999994663757074 0  1.205663382684528e-05 7.999994943995389 0  1.000010685242422 7.999994288272686 0  2.000010709713607 7.999995175305885 0  3.000012938884073 7.999996732916983 0  4.000013939525942 8.000002654451631 0  5.000009598722114 8.000009636721305 0  6.000002229879857 8.000009059097188 0  6.999999130605536 8.000006744225772 0  7.999998866455522 8.000003554278186 0  9 8 0  -9 10 0  -7.999977193478782 10.00001642722668 0  -6.999958650458765 10.00003289188053 0  -5.999949406711144 10.00004937280084 0  -4.999956367963738 10.00006571217135 0  -3.999968378296804 10.00002384921584 0  -2.99996364565974 9.99998864156648 0  -1.999967034616156 9.999998232762675 0  -0.9999773231410561 10.00000136770341 0  1.608856539463581e-05 10.00000213192481 0  1.000010124728641 10.00000173468114 0  2.000002780589768 10.00000061925133 0  2.999995551661197 9.999990433141233 0  3.999996124766251 10.00000782074215 0  4.999988516956283 10.00003165887304 0  5.999982061804375 10.00002313793265 0  6.999984201890229 10.00001510065241 0  7.999991054047261 10.00000744748737 0  9 10 0  -9 12 0  -7.999945969117033 12.00002375687595 0  -6.999895110294914 12.00004858375782 0  -5.999850974558092 12.00007577370869 0  -4.999817888493032 12.00010716398836 0  -3.999824272822602 12.00002715269894 0  -2.999815638350484 11.99994761637174 0  -1.999850476803959 11.9999613013936 0  -0.9998936606774496 11.9999707867774 0  5.896194916778568e-05 11.99997642957784 0  1.000008941719766 11.99997838913777 0  1.999956996773131 11.99997626249104 0  2.999904154777933 11.99996871536825 0  3.999907345364207 12.00001036347722 0  4.999907236565039 12.00005214573821 0  5.999927511801365 12.00003528236758 0  6.999950424478585 12.00002192075125 0  7.999974866266482 12.00001051805694 0  9 12 0  -9 14 0  -7.999902052156925 14.00002680738352 0  -6.999804670762839 14.00005482489926 0  -5.999708331646862 14.00008537554508 0  -4.999613234762496 14.00012000486339 0  -3.999612285002173 14.00002131097981 0  -2.999608829101166 13.99992117263997 0  -1.999700546178326 13.99994117004466 0  -0.9997932304776331 13.99995557767377 0  0.0001124024142832119 13.99996546148325 0  1.000015455959027 13.99997138953376 0  1.999914802733698 13.99997358886819 0  2.999809151363371 13.99997208446763 0  3.999807202166114 14.00001063711293 0  4.999809717836546 14.00004852277362 0  5.999862410293099 14.00003342041409 0  6.999910529751894 14.00002090546962 0  7.999955910262835 14.00001005021405 0  9 14 0  -9 16 0  -7.999855862991548 16.00002501802397 0  -6.999710051582611 16.00005093485567 0  -5.999560703009339 16.00007866462351 0  -4.99940554832883 16.00010913391218 0  -3.999400612822781 16.00001687380504 0  -2.999402648997362 15.99992476559559 0  -1.999546761637228 15.99994340127628 0  -0.9996860785304656 15.99995846666249 0  0.000176154718989516 15.9999703188731 0  1.000036795465692 15.99997930698864 0  1.999892603206599 15.99998573234626 0  2.99974004423108 15.99998986370173 0  3.999735295856627 16.00001045248103 0  4.999740961048326 16.00003080149301 0  5.999815598056284 16.00002120922116 0  6.999881589472835 16.00001325167808 0  7.999942116738013 16.00000636231007 0  9 16 0  -9 18 0  -7.999816362872526 18.00001963365729 0  -6.999629568877652 18.00003979374261 0  -5.999436278825476 18.00006099659469 0  -4.999232782696793 18.00008373313038 0  -3.99922528990963 18.00001370910651 0  -2.999230059039491 17.99994348935503 0  -1.999412187344173 17.99995991607604 0  -0.9995851376298964 17.99997421081468 0  0.0002462715145258659 17.9999866350785 0  1.000077466002688 17.99999747782097 0  1.99990387460597 18.00000705405071 0  2.99972071287323 18.00001571481535 0  3.999714844326974 18.00001009812951 0  4.999721708136063 18.00000412486878 0  5.999803365406249 18.00000245958 0  6.999874504425637 18.00000132545171 0  7.999938898674607 18.00000056629636 0  9 18 0  -9 20 0  -7.999789483113622 20.0000121434587 0  -6.999575056972574 20.0000244816143 0  -5.99935265814719 20.00003719392402 0  -4.999117913499962 20.00005042816737 0  -3.999109249086151 20.00001114889168 0  -2.9991155716777 19.99997166461389 0  -1.999314339842095 19.99998496020863 0  -0.9995016438909216 19.99999743840472 0  0.0003172431635967388 20.00000927890716 0  1.000137275217157 20.00002071616623 0  1.999953445071255 20.00003203892355 0  2.999760600447674 20.00004359473357 0  3.999754760873736 20.00000941548252 0  4.99976158318819 19.99997490600924 0  5.999833202726809 19.99998158596311 0  6.999894396794434 19.99998789957894 0  7.999948851628045 19.99999399904946 0  8.999999999969271 19.99999999998952 0  -9 22 0  -7.999778233876778 22.00000387419801 0  -6.999552422626628 22.00000767251821 0  -5.999318399561642 22.00001130298784 0  -4.999071755048322 22.00001464102014 0  -3.999063064857794 22.00000922079087 0  -2.999069729392708 22.00000358828341 0  -1.999262362216242 22.00001327421136 0  -0.9994429210141957 22.00002321711293 0  0.0003836332997689829 22.00003353598895 0  1.000212536985082 22.00004441271825 0  2.000039082236543 22.00005609163723 0  2.999858477977616 22.00006888134732 0  3.999853593706329 22.00000859045995 0  4.999859429017953 21.99994799309546 0  5.999904738291206 21.99996217872894 0  6.999941243633536 21.99997533201734 0  7.999972029305303 21.99998782636775 0  9 22 0  -9 24 0  -7.999783159161058 23.9999959081577 0  -6.999562622978355 23.99999153426858 0  -5.999334606456934 23.99998658089514 0  -4.999095147025151 23.99998071999075 0  -3.999087304017489 24.00000782279182 0  -2.999093404960979 24.00003469701661 0  -1.999258691178432 24.00004055964097 0  -0.9994126550188531 24.00004749121412 0  0.0004406268377347308 24.00005556088874 0  1.000297238573172 24.00006489964586 0  2.000153329204366 24.00007570017375 0  3.000005017590968 24.000088217888 0  4.000001728686859 24.00000771373635 0  5.000005890150876 23.99992691741528 0  6.000011483641857 23.99994690227362 0  7.000010965323733 23.99996540118368 0  8.000006464512827 23.99998293716901 0  9 24 0  -9 26 0  -7.999802861873393 25.99998907004586 0  -6.999602735564914 25.99997771305769 0  -5.999396573399768 25.99996548781791 0  -4.999181206364629 25.99995192469008 0  -3.999174849825608 26.00000686284531 0  -2.999179718220931 26.00006155971188 0  -1.999300317755535 26.00006356940203 0  -0.9994113744999441 26.00006721173417 0  0.0004843032642616055 26.00007250818344 0  1.000384032019187 26.00007953809486 0  2.000285198127808 26.00008843841533 0  3.000185204269717 26.00009940504892 0  4.000183893937951 26.00000688127684 0  5.000185959392821 25.99991408078983 0  6.000142667673176 25.99993757125841 0  7.000096611153801 25.99995932318424 0  8.000048750718738 25.99997994126816 0  9 26 0  -9 28 0  -7.999834511461946 27.99998393982051 0  -6.999666980318006 27.99996736414343 0  -5.999495331868318 27.99994974441357 0  -4.999317427031965 27.99993052609485 0  -3.99931297764662 28.00000626277733 0  -2.999316165662413 28.00008174704814 0  -1.999380123171659 28.00008004757675 0  -0.9994370342737174 28.00008031450045 0  0.0005117783768402352 28.00008252081807 0  1.000465083319614 28.00008669312802 0  2.000421721820218 28.00009291130635 0  3.000380590650482 28.00010130859702 0  4.000381410209068 28.00000618614678 0  5.000381190648958 27.9999108007933 0  6.000284899474145 27.99993519613567 0  7.000189464731702 27.999957
[...]
<PointData  Scalars="f_44-1"> 
<DataArray  type="Float64"  Name="f_44-1"  format="ascii">-5.1439417225416150e-04  -7.0445659498447925e-05  -1.9960950082107346e-05  -1.2561924204321375e-04  1.0478148773245457e-03  0.0000000000000000e+00  0.0000000000000000e+00  0.0000000000000000e+00  0.0000000000000000e+00  0.0000000000000000e+00  0.0000000000000000e+00  0.0000000000000000e+00  0.0000000000000000e+00  0.0000000000000000e+00  -5.3811930411722835e-04  -4.3670644112202689e-05  4.7962259441128748e-06  -1.1945718964237996e-04  1.0785884032046037e-03  -1.1001934093916687e-02  -1.1013672879866997e-02  -1.1023457902491967e-02  -1.0998455054510758e-02  -1.0922620759352417e-02  0.0000000000000000e+00  0.0000000000000000e+00  0.0000000000000000e+00  0.0000000000000000e+00  0.0000000000000000e+00  0.0000000000000000e+00  0.0000000000000000e+00  0.0000000000000000e+00  0.0000000000000000e+00  -1.1617797708741604e-02  -1.1653288978846243e-02  -1.1676145174053245e-02  -1.1631359887617529e-02  -1.1537548997762565e-02  -2.2095153104800497e-02  -2.2113425101558063e-02  -2.2132673095732230e-02  -2.2132746963335337e-02  -2.2112257831411335e-02  0.0000000000000000e+00  0.0000000000000000e+00  0.0000000000000000e+00  0.0000000000000000e+00  0.0000000000000000e+00  0.0000000000000000e+00  0.0000000000000000e+00  0.0000000000000000e+00  0.0000000000000000e+00  -2.3329584349462092e-02  -2.3305035893853205e-02  -2.3289008680384787e-02  -2.3296260615439032e-02  -2.3301922611242660e-02  -3.3139841934430272e-02  -3.3121108788980523e-02  -3.3077326459263728e-02  -3.3026677766634413e-02  -3.2989456989214731e-02  0.0000000000000000e+00  0.0000000000000000e+00  0.0000000000000000e+00  0.0000000000000000e+00  0.0000000000000000e+00  0.0000000000000000e+00  0.0000000000000000e+00  0.0000000000000000e+00  0.0000000000000000e+00  -3.4938346868820441e-02  -3.4926976307659598e-02  -3.4925350978333325e-02  -3.4922979520722403e-02  -3.4924302189170517e-02  -4.4248526411598869e-02  -4.4246191530594246e-02  -4.4258146176163110e-02  -4.4276803967535555e-02  -4.4284418695822121e-02  0.0000000000000000e+00  0.0000000000000000e+00  0.0000000000000000e+00  0.0000000000000000e+00  0.0000000000000000e+00  0.0000000000000000e+00  0.0000000000000000e+00  0.0000000000000000e+00  0.0000000000000000e+00  -4.6624155741819606e-02  -4.6573375188987257e-02  -4.6542818370816398e-02  -4.6533556453081326e-02  -4.6526173864072012e-02  -5.5360766189423385e-02  -5.5354004846317958e-02  -5.5350468597590068e-02  -5.5338858552704984e-02  -5.5409452568031717e-02  0.0000000000000000e+00  -1.5215439775382997e-01  -1.5215975131633505e-01  -1.5242276728234438e-01  -1.5252636339931563e-01  -1.5242261816427524e-01  -1.5209137853765609e-01  -1.5150125819537008e-01  0.0000000000000000e+00  -5.8095118628999881e-02  -5.8067708894129516e-02  -5.8093215102084907e-02  -5.8116265376611825e-02  -5.8116455244891334e-02  -6.6485550473017657e-02  -6.6465940663653800e-02  -6.6424074595812330e-02  -6.6347295351931318e-02  -6.6302788559027187e-02  0.0000000000000000e+00  -1.5251173344536834e-01  -1.5275522227060953e-01  -1.5288323148482785e-01  -1.5289131224834121e-01  -1.5281904470522906e-01  -1.5269568048232821e-01  -1.5257871204635223e-01  0.0000000000000000e+00  -6.9484852624340759e-02  -6.9537456844083620e-02  -6.9659923341268803e-02  -6.9736955365788722e-02  -6.9756043963541528e-02  -7.7677850951525587e-02  -7.7645451888051040e-02  -7.7576365247197174e-02  -7.7464749565526764e-02  -7.7399455895602307e-02  0.0000000000000000e+00  -1.5361742688541771e-01  -1.5364761101778471e-01  -1.5365351950923226e-01  -1.5363548526359125e-01  -1.5357796572419732e-01  -1.5347219497682388e-01  -1.5334183850524502e-01  0.0000000000000000e+00  -8.1121174993066314e-02  -8.1237650811838549e-02  -8.1395435581628248e-02  -8.1487194883734737e-02  -8.1522494052670064e-02  -8.8964933737999422e-02  -8.8926055466689732e-02  -8.8857102439490215e-02  -8.8760515343920474e-02  -8.8708819876584952e-02  0.0000000000000000e+00  -1.5449802218047165e-01  -1.5457428244249322e-01  -1.5460151258958019e-01  -1.5458290930682089e-01  -1.5451890651525904e-01  -1.5440737412230818e-01  -1.5424744506023752e-01  0.0000000000000000e+00  -9.3133755815531211e-02  -9.3201744473670703e-02  -9.3319466328874973e-02  -9.3395410492365813e-02  -9.3432185626158640e-02  -1.0031386714949640e-01  -1.0027610956987577e-01  -1.0023220393749030e-01  -1.0019125345870954e-01  -1.0019510331407053e-01  0.0000000000000000e+00  -1.5560052984755174e-01  -1.5568797200326706e-01  -1.5572531296444450e-01  -1.5571255878097615e-01  -1.5565045009363443e-01  -1.5553689218004674e-01  -1.5537717923578390e-01  0.0000000000000000e+00  -1.0535379021236552e-01  -1.0532898168411325e-01  -1.0536307266418132e-01  -1.0539441178181543e-01  -1.0542725200764515e-01  -1.1164110530192672e-01  -1.1161074684969192e-01  -1.1160679855924187e-01  -1.1164190748518099e-01  -1.1171750084045505e-01  0.0000000000000000e+00  -1.5691808528351500e-01  -1.5701347822898407e-01  -1.5705659629604854e-01  -1.5704694405590036e-01  -1.5698760208545171e-01  -1.5687657466700364e-01  -1.5671419330789579e-01  0.0000000000000000e+00  -1.1757517494256767e-01  -1.1744923745948825e-01  -1.1738399122837993e-01  -1.1735996286675802e-01  -1.1738415058743012e-01  -1.2283877920381837e-01  -1.2282013774455211e-01  -1.2286108080289199e-01  -1.2297489484011795e-01  -1.2311976440073162e-01  0.0000000000000000e+00  -1.5846597645526189e-01  -1.5855612231317850e-01  -1.5859773437891347e-01  -1.5858984078512925e-01  -1.5853518515592088e-01  -1.5843186100510345e-01  -1.5827800868317174e-01  0.0000000000000000e+00  -1.2960675866648322e-01  -1.2938616685328100e-01  -1.2922257181507515e-01  -1.2914264703328021e-01  -1.2915385283193498e-01  -1.3380062740736046e-01  -1.3379600789236212e-01  -1.3387866187749178e-01  -1.3406030827305071e-01  -1.3425939605896003e-01  0.0000000000000000e+00  -1.6023571420440347e-01  -1.6030690316821333e-01  -1.6033817552424556e-01  -1.6032834645945243e-01  -1.6027959132143435e-01  -1.6019070802947155e-01  -1.6005786118679430e-01  0.0000000000000000e+00  -1.4127129470686078e-01  -1.4097624893354838e-01  -1.4072910828150917e-01  -1.4060026054842087e-01  -1.4059594292588526e-01  -1.4444218256036784e-01  -1.4445191139506480e-01  -1.4456697361254997e-01  -1.4479591214126541e-01  -1.4502586982513377e-01  0.0000000000000000e+00  -1.6218896318896406e-01  -1.6222942843647720e-01  -1.6224288062314762e-01  -1.6222825464479759e-01  -1.6218680017014925e-01  -1.6211814339313849e-01  -1.6201687113661917e-01  0.0000000000000000e+00  -1.5243118233880462e-01  -1.5209059091542038e-01  -1.5178458543742479e-01  -1.5161961390724216e-01  -1.5159953546873653e-01  -1.5471444733026959e-01  -1.5473717689489688e-01  -1.5487119569696847e-01  -1.5512086906891248e-01  -1.5535393244601708e-01  0.0000000000000000e+00  -1.6426710761450686e-01  -1.6426888152497018e-01  -1.6425947709437846e-01  -1.6423802049134476e-01  -1.6420469953770750e-01  -1.6416004239449242e-01  -1.6409771105444662e-01  0.0000000000000000e+00  -1.6300195461911346e-01  -1.6264939474291604e-01  -1.6231543839131962e-01  -1.6213100731864941e-01  -1.6209697957897370e-01  -1.6461214283999775e-01  -1.6464483345748571e-01  -1.6478201682700966e-01  -1.6502329201833899e-01  -1.6523096014064681e-01  0.0000000000000000e+00  -1.6639927137954680e-01  -1.6635900671281700e-01  -1.6632459262863572e-01  -1.6629525965048783e-01  -1.6627018343535435e-01  -1.6625075070668138e-01  -1.6623040591224800e-01  0.0000000000000000e+00  -1.7295993570934573e-01  -1.7262997088886572e-01  -1.7230166748909356e-01  -1.7211636900381913e-01  -1.7207180924988197e-01  -1.7417404367722752e-01  -1.7421301000110664e-01  -1.7433733471406146e-01  -1.7454204348489555e-01  -1.7469846540452683e-01  0.0000000000000000e+00  -1.6851182877510673e-01  -1.6843086293972978e-01  -1.6837212469278895e-01  -1.6833480598326109e-01  -1.6831725088236535e-01  -1.6832157645009324e-01  -1.6834171960342559e-01  0.0000000000000000e+00  -1.8234408231185309e-01  -1.8206865634162414e-01  -1.8177885239474323e-01  -1.8161133578115593e-01  -1.8156078365761677e-01  -1.8348268427662118e-01  -1.8352253261509593e-01  -1.8361921741789120e-01  -1.8376306042810400e-01  -1.8384780278459764e-01  0.0000000000000000e+00  -1.7053699177097173e-01  -1.7042080813409557e-01  -1.7034082303887474e-01  -1.7029616970102307e-01  -1.7028458421283155e-01  -1.7030874701732651e-01  -1.7036368565370080e-01  0.0000000000000000e+00  -1.9125104458520170e-01  -1.9105666024969695e-01  -1.9083447834167613e-01  -1.9070149614679235e-01  -1.9065009535584063e-01  -1.9264812665118516e-01  -1.9268628565078524e-01  -1.9274420318568070e-01  -1.9280865472954653e-01  -1.9280867199601695e-01  0.0000000000000000e+00  -1.7241939004813633e-01  -1.7227665161222561e-01  -1.7218022769573962e-01  -1.7212936259769240e-01  -1.7212146380404386e-01  -1.7215956480660868e-01  -1.7224018540466132e-01  0.0000000000000000e+00  -1.9982573155729957e-01  -1.9973128294550710e-01  -1.9959836539939363e-01  -1.9951326304782827e-01  -1.9946627188712582e-01  -2.0181066618513541e-01  -2.0183764877653057e-01  -2.0184657031938127e-01  -2.0182433150297466e-01  -2.0173897616525682e-01  0.0000000000000000e+00  -1.7412025679269702e-01  -1.7396139818618750e-01  -1.7385425424715434e-01  -1.7379854688478835e-01  -1.7379154434582170e-01  -1.7383636561269766e-01  -1.7393122095498872e-01  0.0000000000000000e+00  -2.0824943970482118e-01  -2.0825896353607801e-01  -2.0822938219769488e-01  -2.0820093556643315e-01  -2.0816314231068092e-01  -2.1109204051555486e-01  -2.1111303138671031e-01  -2.1108073143939568e-01  -2.1097540437715182e-01  -2.1080802423732986e-01  0.0000000000000000e+00  -1.7561883870074252e-01  -1.7545492488447584e-01  -1.7534280744739494e-01  -1.7528323698840637e-01  -1.7527381621397334e-01  -1.7531767102806076e-01  -1.7541450110982071e-01  0.0000000000000000e+00  -2.1669665979931815e-01  -2.1682385761683767e-01  -2.1690010112221039e-01  -2.1692973686005149e-01  -2.1690471206820264e-01  -2.2064216086972510e-01  -2.2064976649478257e-01  -2.2056364570672338e-01  -2.2037101602107867e-01  -2.2013613229262566e-01  0.0000000000000000e+00  -1.7691283294879864e-01  -1.7675314901831851e-01  -1.7663987159354941e-01  -1.7657788398484053e-01  -1.7656498782477323e-01  -1.7660197314833778e-01  -1.7668947618191561e-01  0.0000000000000000e+00  -2.2541945411086881e-01  -2.2560667303732260e-01  -2.2577284359447791e-01  -2.2585840888745562e-01  -2.2584891561707834e-01  -2.3053174871614118e-01  -2.3051256597217190e-01  -2.3039701723787664e-01  -2.3018482888824585e-01  -2.2994047343875473e-01  0.0000000000000000e+00  -1.7802073596589257e-01  -1.7786113056808772e-01  -1.7775002394890568e-01  -1.7768623177108853e-01  -1.7766760039839011e-01  -1.7769471780736532e-01  -1.7777103400167893e-01  0.0000000000000000e+00  -2.3441734977943146e-01  -2.3473292475017529e-01  -2.3499386850696541e-01  -2.3512368253024704e-01  -2.3512899339664362e-01  -2.4079628133665126e-01  -2.4080662565545777e-01  -2.4068914642344677e-01  -2.4042734234720181e-01  -2.4012097106519883e-01  0.0000000000000000e+00  -1.7891891244496128e-01  -1.7878821293001673e-01  -1.7868243217761046e-01  -1.7862482245973593e-01  -1.7860675725950928e-01  -1.7861315284696114e-01  -1.7864387291120470e-01  0.0000000000000000e+00  -2.4411322609088149e-01  -2.4439974903637757e-01  -2.4466914811590376e-01  -2.4482403477754824e-01  -2.4484473886022268e-01  -2.5164229212093675e-01  -2.5157165934724429e-01  -2.5139196100548700e-01  -2.5109546224307949e-01  -2.5078206879738363e-01  0.0000000000000000e+00  -1.7968061960055270e-01  -1.7956173691501362e-01  -1.7943850251116669e-01  -1.7936628771455779e-01  -1.7937440539592966e-01  -1.7950188117868071e-01  -1.7974425480357775e-01  0.0000000000000000e+00  -2.5424604019011710e-01  -2.5455167953907404e-01  -2.5484930948396428e-01  -2.5499045782498270e-01  -2.5500613362354119e-01  -2.6248701587621215e-01  -2.6251828518607884e-01  -2.6244952990847825e-01  -2.6233460297421374e-01  -2.6215239565528564e-01  0.0000000000000000e+00  -1.8074610389083262e-01  -1.8016399822274584e-01  -1.7983502559966152e-01  -1.7973128152617779e-01  -1.7983410729499771e-01  -1.8009399570311049e-01  -1.8009966325542534e-01  0.0000000000000000e+00  -2.6487512017726511e-01  -2.6520291451994449e-01  -2.6542291738740131e-01  -2.6557325094976802e-01  -2.6562498910453652e-01  -2.7434492137700367e-01  -2.7429068911293031e-01  -2.7419691331670459e-01  -2.7401647510632754e-01  -2.7387424389374043e-01  0.0000000000000000e+00  0.0000000000000000e+00  0.0000000000000000e+00  0.0000000000000000e+00  0.0000000000000000e+00  0.0000000000000000e+00  0.0000000000000000e+00  0.0000000000000000e+00  0.0000000000000000e+00  -2.7668412253885327e-01  -2.7665934366930783e-01  -2.7666322940617494e-01  -2.7660655586169058e-01  -2.7656475379815859e-01  -2.8531161808581063e-01  -2.8528453338460735e-01  -2.8525680256062164e-01  -2.8532147556061355e-01  -2.8530195667790237e-01  0.0000000000000000e+00  0.0000000000000000e+00  0.0000000000000000e+00  0.0000000000000000e+00  0.0000000000000000e+00  0.0000000000000000e+00  0.0000000000000000e+00  0.0000000000000000e+00  0.0000000000000000e+00  -2.8718802168988050e-01  -2.8716168922403634e-01  -2.8716285434075212e-01  -2.8726471186155245e-01  -2.8728919111110418e-01  -2.9761436653148060e-01  -2.9771136984015018e-01  -2.9771784330414675e-01  -2.9751886768137920e-01  -2.9757037147150023e-01  0.0000000000000000e+00  0.0000000000000000e+00  0.0000000000000000e+00  0.0000000000000000e+00  0.0000000000000000e+00  0.0000000000000000e+00  0.0000000000000000e+00  0.0000000000000000e+00  0.0000000000000000e+00  -2.9892747904503159e-01  -2.9899996455034922e-01  -2.9899929135434072e-01  -2.9880152532500781e-01  -2.9885642377112870e-01  -3.0963769675991526e-01  -3.0904713428097774e-01  -3.0846062138900515e-01  -3.0827403431624611e-01  -3.0796299171607122e-01  0.0000000000000000e+00  0.0000000000000000e+00  0.0000000000000000e+00  0.0000000000000000e+00  0.0000000000000000e+00  0.0000000000000000e+00  0.0000000000000000e+00  0.0000000000000000e+00  0.0000000000000000e+00  -3.1025624675624991e-01  -3.0967510589485381e-01  -3.0910395480030617e-01  -3.0892805035074011e-01  -3.0862691999742387e-01  -3.2063807232925573e-01  -3.1982730172310403e-01  -3.2058176496961283e-01  -3.2035073007242737e-01  -3.1963276691560105e-01  0.0000000000000000e+00  0.0000000000000000e+00  0.0000000000000000e+00  0.0000000000000000e+00  0.0000000000000000e+00  0.0000000000000000e+00  0.0000000000000000e+00  0.0000000000000000e+00  0.0000000000000000e+00  -3.2057219071155579e-01  -3.1983284019704605e-01  -3.2058308779131139e-01  -3.2035096796981472e-01  -3.1966468890848149e-01  </DataArray> 
</PointData> 
</Piece>
</UnstructuredGrid>
</VTKFile>