<?xml version="1.0"?>
<VTKFile type="UnstructuredGrid"  version="0.1"  >
<UnstructuredGrid>
<Piece  NumberOfPoints="589" NumberOfCells="1080">
<Points>
<DataArray  type="Float64"  NumberOfComponents="3"  format="ascii">-9 0 0  -8 0 0  -7 0 0  -6 0 0  -5 0 0  -4 0 0  -3 0 0  -2 0 0  -1 0 0  0 0 0  1 0 0  2 0 0  3 0 0  4 0 0  5 0 0  6 0 0  7 0 0  8 0 0  9 0 0  -9 2 0  -8.000007554805348 1.999988236614287 0  -7.000015858748878 1.999977958800991 0  -6.000026704610257 1.999970377242595 0  -5.000044215846779 1.99996603643183 0  -4.000025773375554 1.999974490309033 0  -3.000006835481059 1.999982708136156 0  -1.999997687480956 1.999990504543816 0  -0.9999963526340695 1.999996664920034 0  1.124408392757935e-07 1.999999341597962 0  0.9999962703071289 1.999997391760992 0  1.999996568905562 1.999991257570759 0  3.000004008709378 1.999983729540926 0  4.000019553392805 1.999975625961425 0  5.000042187567348 1.999972140288786 0  6.000025589587939 1.999973362348731 0  7.00001528329226 1.999979476183063 0  8.000007316503927 1.999988896100494 0  9 2 0  -9.000000000004983 4 0  -8.000012112889983 3.999970531736766 0  -7.000021549884988 3.999945133172525 0  -6.000026747641241 3.999927791817768 0  -5.000028037719686 3.999922310999267 0  -4.000000900835755 3.999926210380556 0  -2.999982759856131 3.999949630060323 0  -1.999978202209621 3.999980183872913 0  -0.9999854335339708 4.000004772678835 0  9.330800508054874e-07 4.000014610867596 0  0.9999870462512779 4.000006634674358 0  1.999978970597891 3.999985334895619 0  2.999982791501558 3.999956498148452 0  4.000000384448698 3.999927371738899 0  5.000027324703676 3.999917211403019 0  6.000026012249581 3.999927158178387 0  7.000021208314804 3.999945728954895 0  8.000012031501303 3.999971057223334 0  9 4 0  -9 6 0  -8.000027373540302 5.99993655205822 0  -7.000044197898445 5.999880082416914 0  -6.00004242133766 5.999837767855947 0  -5.000019726550035 5.999816498359286 0  -3.999966368397193 5.999851233239057 0  -2.999942167556775 5.999924092019056 0  -1.999951889247733 6.000000534996754 0  -0.9999760111229766 6.000043071354386 0  -4.934815281885289e-07 6.000051521344819 0  0.9999774117350239 6.000037502136352 0  1.999960516778223 5.999998849322076 0  2.999954155074926 5.999933532750404 0  3.999966897721249 5.999865675497233 0  5.000012923442743 5.999831703904194 0  6.00004040077803 5.999846461546015 0  7.000044623697169 5.99988495584207 0  8.000028163564297 5.999938764197807 0  9 6 0  -9 8 0  -8.000084819059092 7.999874677505356 0  -7.000141242442551 7.999758431375795 0  -6.00014176356704 7.999663583530184 0  -5.000062831296161 7.999610434360917 0  -3.999959382248516 7.999771498810174 0  -2.999978254044529 7.999960879992712 0  -2.000016959049495 8.0000533401416 0  -1.000020290627424 8.000064087714454 0  2.710474933181136e-06 8.000067264671838 0  1.00001974571407 8.000076655037297 0  2.000012235471514 8.000037454995379 0  2.999966551257693 7.999970817454916 0  3.999950889893899 7.999805913845454 0  5.000053434188534 7.999619793890989 0  6.000147792439083 7.99967084645531 0  7.000150754446636 7.999762948094063 0  8.000091094853891 7.999876777743115 0  9 8 0  -9 10 0  -8.000255753371661 9.999776573162167 0  -7.000461795412744 9.999551304485893 0  -6.000558822499317 9.999322798139065 0  -5.000464214082285 9.999090723891674 0  -4.000300251064849 9.999610828153179 0  -3.000326725794934 10.00005811535731 0  -2.000260111467184 9.999981653153347 0  -1.000116073651964 9.999957106042999 0  -9.723822763189318e-06 9.999951093959027 0  1.00009599407957 9.999951477666896 0  2.000237163149316 9.999948351976654 0  3.00036084831129 10.00011111330549 0  4.000344492983725 9.999680473218271 0  5.000533366116414 9.99911211572098 0  6.000620562811344 9.999331194639659 0  7.000507241074593 9.999554117556803 0  8.000279681636769 9.99977727745107 0  9 10 0  -9 12 0  -8.000625097788991 11.99968599776423 0  -7.001217696887175 11.99935740103273 0  -6.001741047972518 11.99899676014027 0  -5.002149500535905 11.99857975584767 0  -4.002065670826963 11.99952789273209 0  -3.002141000648623 12.00046643339131 0  -2.001460290382715 12.00035434106712 0  -1.000704424452637 12.00029447673698 0  7.946335048762016e-05 12.0002843180397 0  1.000870174006153 12.00032596452789 0  2.001649542932308 12.00043108113885 0  3.002381504572595 12.00062871965831 0  4.002298614344458 11.9995932022872 0  5.002353891842677 11.99854895675392 0  6.001894385970236 11.99897653613035 0  7.001320167180054 11.99934456578581 0  8.000676444213923 11.99967966700419 0  9 12 0  -9 14 0  -8.001123539154197 13.9996539830095 0  -7.002249152020823 13.9992919905522 0  -6.003380405340819 13.99889663806986 0  -5.004524667392769 13.99844777513001 0  -4.004536643346142 13.99955526754283 0  -3.004543006380604 14.00067666740371 0  -2.002962789691483 14.00051845426392 0  -1.001405588685778 14.00043332386424 0  0.0001416101256363578 14.00041059947789 0  1.001691098882203 14.0004469164225 0  2.003254135529696 14.00054422133389 0  3.004839342703886 14.0007077598473 0  4.004850443615851 13.9995524882746 0  5.004858564771236 13.99840417046235 0  6.003624816176095 13.99886081200916 0  7.002409794078736 13.99926716824655 0  8.001203270359275 13.99964137108775 0  9 14 0  -9 16 0  -8.001612461626364 15.99968599171782 0  -7.003256027177702 15.99936027806337 0  -6.004964476392879 15.99901094634779 0  -5.006777029312824 15.99862585303429 0  -4.006842029904638 15.99956874403748 0  -3.006780334285288 16.00050653735912 0  -2.00437641869821 16.00039123269947 0  -1.00206812267415 16.00032335159485 0  0.000194691536955617 16.00030144511123 0  1.002459381681589 16.00032463734798 0  2.004773275963233 16.00039314940659 0  3.007186691483113 16.00050805925505 0  4.007254993144766 15.99952238949312 0  5.007195228989956 15.99853588473799 0  6.005276535117294 15.99894673619352 0  7.003463117807845 15.99931873893799 0  8.001715702252604 15.99966555814274 0  9 16 0  -9 18 0  -8.001975676484273 17.99976485416848 0  -7.004001053013461 17.9995231665388 0  -6.006128405644867 17.99926850993129 0  -5.008415128463238 17.99899470886247 0  -4.008513310368746 17.99957152223357 0  -3.00841827703836 18.00014748139342 0  -2.005411675919751 18.00007514436762 0  -1.002550633539815 18.00003033803076 0  0.0002402335426699048 18.00001274467773 0  1.003032654846433 18.00002191097953 0  2.0058982598176 18.00005728552653 0  3.008912090764431 18.00011807816875 0  4.009012430118315 17.99949995509478 0  5.008916888683249 17.99888350520433 0  6.006502785510577 17.99918838418671 0  7.004249689786903 17.99947124662575 0  8.002099708472191 17.99973932975235 0  9 18 0  -9 20 0  -8.002138895179858 19.99986986470994 0  -7.004335801564685 19.99973796441329 0  -6.006650944887812 19.99960272575479 0  -5.00914897902669 19.99946294974424 0  -4.00926105246041 19.99957122793066 0  -3.009149929861154 19.99967854110345 0  -2.005869354257759 19.99964954521252 0  -1.002754636542995 19.99962910334378 0  0.000279498981725778 19.9996176371492 0  1.003315248419659 19.99961496404223 0  2.00643478807274 19.99962031855014 0  3.009723348369447 19.99963229888399 0  4.009837028043551 19.99948888242957 0  5.009724949878117 19.99934656962568 0  6.007080505471129 19.99951819465274 0  7.004621027120962 19.99968291899592 0  8.002281164826144 19.99984273410908 0  8.999999999984142 19.99999999999385 0  -9 22 0  -8.002068958282649 21.99998191449887 0  -7.004195234021613 21.9999661142191 0  -6.006437951186752 21.99995510146733 0  -5.008859828215287 21.99995181782118 0  -4.00896957012513 21.99956646909062 0  -3.00886030384066 21.99918002532825 0  -2.005668340382639 21.99918993685471 0  -1.002638533933639 21.99919219240704 0  0.0003123252165258866 21.99918758483914 0  1.003264935785138 21.99917611856291 0  2.006300001590394 21.99915702444826 0  3.009500751365962 21.99912874512715 0  4.009610570453205 21.99948545940883 0  5.009498303510668 21.99984272844004 0  6.006914028692076 21.99987559465373 0  7.004511293688782 21.99991420356045 0  8.002226586905515 21.99995628728792 0  9 22 0  -9 24 0  -8.001768600346658 24.00008482737686 0  -7.003586466519519 24.0001751177799 0  -6.005504266804286 24.00027655890139 0  -5.007575372435566 24.00039530488983 0  -4.007669944322902 23.99955737939147 0  -3.007576679733367 23.99871843138347 0  -2.004823317381591 23.99876076995746 0  -1.002208767643481 23.998782562819 0  0.0003382683787434761 23.99878479550278 0  1.002887186296645 23.99876760073638 0  2.005507398366146 23.99873026225762 0  3.00827025654931 23.9986712088877 0  4.008362438104125 23.99948760668837 0  5.008263464432138 24.00030423989507 0  6.006017242777817 24.00020999137091 0  7.003926975681659 24.00013156327923 0  8.001938405775745 24.00006329768792 0  9 24 0  -9 26 0  -8.001269856548403 26.00016591502832 0  -7.002575362088499 26.00033953714155 0  -6.00395316322417 26.00052880292579 0  -5.005441689066145 26.0007421262081 0  -4.005511271222749 25.99954447309335 0  -3.005444679150223 25.9983459901261 0  -2.003427504159489 25.9984133662193 0  -1.001510967367234 25.99845075600252 0  0.0003568784400492233 25.99845929387632 0  1.002226690624811 25.99843922557758 0  2.004149145629258 25.99838990957676 0  3.006176250231007 25.99830981434897 0  4.006240562336957 25.99949340337804 0  5.006165207198059 26.00067699827721 0  6.004492530105921 26.00048109869568 0  7.002933379858304 26.00030827735294 0  8.00144839027625 26.00015044769508 0  9 26 0  -9 28 0  -8.000626974808505 28.00021620428199 0  -7.001272271254964 28.00044140312421 0  -6.001954781819847 28.00068482517956 0  -5.002694247816463 28.0009561753132 0  -4.002732092781667 27.99952891479744 0  -3.002699165275969 27.99810116067681 0  -2.001633516071227 27.99818546337198 0  -1.000620385709176 27.99823390739595 0  0.0003678180067765048 27.99824775980422 0  1.001358015575905 27.99822737466902 0  2.002377143867465 27.99817219365069 0  3.003452844942478 27.99808074437139 0  4.003482742669064 27.99950152889518 0  5.003438297901794 28.00092223294713 0  6.002509494660194 28.00065991482729 0  7.001640497188598 28.00042505551141 0 
[...]
<PointData  Scalars="f_44-1"> 
<DataArray  type="Float64"  Name="f_44-1"  format="ascii">1.3748837117695963e-03  -1.6126470037112506e-06  4.4576752742425698e-05  3.0491683610417931e-05  -1.1400008554856283e-03  0.0000000000000000e+00  0.0000000000000000e+00  0.0000000000000000e+00  0.0000000000000000e+00  0.0000000000000000e+00  0.0000000000000000e+00  0.0000000000000000e+00  0.0000000000000000e+00  0.0000000000000000e+00  1.3789455447613442e-03  1.1730257573339597e-06  4.7360068368553563e-05  2.3117050141978862e-05  -1.1481372989211854e-03  8.6380071328077027e-02  8.6393845510868622e-02  8.6209253771336217e-02  8.5925358491653420e-02  8.5801955386966208e-02  0.0000000000000000e+00  0.0000000000000000e+00  0.0000000000000000e+00  0.0000000000000000e+00  0.0000000000000000e+00  0.0000000000000000e+00  0.0000000000000000e+00  0.0000000000000000e+00  0.0000000000000000e+00  8.6237508654949654e-02  8.6241903810844248e-02  8.6048404801779249e-02  8.5763457259833156e-02  8.5637110282062848e-02  1.7236962029280209e-01  1.7234825679789961e-01  1.7230219189568463e-01  1.7226157457257074e-01  1.7228141168499078e-01  0.0000000000000000e+00  0.0000000000000000e+00  0.0000000000000000e+00  0.0000000000000000e+00  0.0000000000000000e+00  0.0000000000000000e+00  0.0000000000000000e+00  0.0000000000000000e+00  0.0000000000000000e+00  1.7203813622418695e-01  1.7204522189170096e-01  1.7202149935878663e-01  1.7198283711160137e-01  1.7199241406188259e-01  2.5849659552903143e-01  2.5849995805409542e-01  2.5851363826819534e-01  2.5853260919651644e-01  2.5852989047931740e-01  0.0000000000000000e+00  0.0000000000000000e+00  0.0000000000000000e+00  0.0000000000000000e+00  0.0000000000000000e+00  0.0000000000000000e+00  0.0000000000000000e+00  0.0000000000000000e+00  0.0000000000000000e+00  2.5804029455162930e-01  2.5803472598777838e-01  2.5804314584845567e-01  2.5805220053847683e-01  2.5806056702653751e-01  3.4466639283794170e-01  3.4465093171513494e-01  3.4458948257152971e-01  3.4445738515480256e-01  3.4437418029824057e-01  0.0000000000000000e+00  0.0000000000000000e+00  0.0000000000000000e+00  0.0000000000000000e+00  0.0000000000000000e+00  0.0000000000000000e+00  0.0000000000000000e+00  0.0000000000000000e+00  0.0000000000000000e+00  3.4396875413444705e-01  3.4405740809798663e-01  3.4409707858270516e-01  3.4412109845572914e-01  3.4413519823328953e-01  4.3094947690066820e-01  4.3093487417915888e-01  4.3089312936732527e-01  4.3087009646429647e-01  4.3084788304050714e-01  0.0000000000000000e+00  1.3595483877576318e+00  1.3594102208265255e+00  1.3594044595197838e+00  1.3593474216004309e+00  1.3594190270024100e+00  1.3594978739068075e+00  1.3589370015697051e+00  0.0000000000000000e+00  4.3013182931999777e-01  4.3017684789782690e-01  4.3020485010422294e-01  4.3024041510643568e-01  4.3025887203081242e-01  5.1735028914854297e-01  5.1732615379083025e-01  5.1724491598018230e-01  5.1712343812548955e-01  5.1688452101605975e-01  0.0000000000000000e+00  1.3594978237947239e+00  1.3593165530499043e+00  1.3592061282905321e+00  1.3591602488339423e+00  1.3592176203782416e+00  1.3593235362466571e+00  1.3596679233830977e+00  0.0000000000000000e+00  5.1605181014038393e-01  5.1622999842475770e-01  5.1637564822956505e-01  5.1645502506172802e-01  5.1648403074519023e-01  6.0399232404370762e-01  6.0395513731620620e-01  6.0381118125136102e-01  6.0356791182897918e-01  6.0317866627822303e-01  0.0000000000000000e+00  1.3593106712537462e+00  1.3589245096907241e+00  1.3586748476867303e+00  1.3585998410089677e+00  1.3586800379138766e+00  1.3589140267133473e+00  1.3592886188247919e+00  0.0000000000000000e+00  6.0207813171680924e-01  6.0248178863640756e-01  6.0274626407113541e-01  6.0290568211852047e-01  6.0295138198303166e-01  6.9107040313024926e-01  6.9101969984232314e-01  6.9080628908588926e-01  6.9043030344075884e-01  6.8985156842617545e-01  0.0000000000000000e+00  1.3584047683472771e+00  1.3578507683859700e+00  1.3575234437877246e+00  1.3574196536017771e+00  1.3575333570008810e+00  1.3578665894286595e+00  1.3584466854286481e+00  0.0000000000000000e+00  6.8854268628706283e-01  6.8916174106346539e-01  6.8957982105473747e-01  6.8981684232151474e-01  6.8987774083858910e-01  7.7879378638827779e-01  7.7873295671051268e-01  7.7846386208527274e-01  7.7798315892494618e-01  7.7726389910299110e-01  0.0000000000000000e+00  1.3565953092045704e+00  1.3559030286746030e+00  1.3554944887735829e+00  1.3553634349781638e+00  1.3555051625774441e+00  1.3559221925407567e+00  1.3566346450353475e+00  0.0000000000000000e+00  7.7585375025482639e-01  7.7661230136038883e-01  7.7712854394944397e-01  7.7742029294079185e-01  7.7749101399741283e-01  8.6732813997845082e-01  8.6726324674754518e-01  8.6696569565305903e-01  8.6643170041256123e-01  8.6564949929363022e-01  0.0000000000000000e+00  1.3535763848285531e+00  1.3528186912599303e+00  1.3523768322072218e+00  1.3522364789582142e+00  1.3523925698943440e+00  1.3528495759795367e+00  1.3536246593690100e+00  0.0000000000000000e+00  8.6419046388428411e-01  8.6501197369071092e-01  8.6557336472977076e-01  8.6588860786067712e-01  8.6596198545093750e-01  9.5675667009088594e-01  9.5669477824164928e-01  9.5640159896782417e-01  9.5587449805575075e-01  9.5511663240157307e-01  0.0000000000000000e+00  1.3492453835103386e+00  1.3485051476426775e+00  1.3480771579770165e+00  1.3479420086394798e+00  1.3480962477138072e+00  1.3485454397657251e+00  1.3493015612344754e+00  0.0000000000000000e+00  9.5365644981846820e-01  9.5445077083126340e-01  9.5499605338320392e-01  9.5530091111268645e-01  9.5536986086881259e-01  1.0470631173852021e+00  1.0470110679467683e+00  1.0467550640644345e+00  1.0462944301703418e+00  1.0456459974475256e+00  0.0000000000000000e+00  1.3436302330743639e+00  1.3429895093874151e+00  1.3426229139606434e+00  1.3425087303568326e+00  1.3426451978909832e+00  1.3430381446844173e+00  1.3436930120108133e+00  0.0000000000000000e+00  1.0442228927367028e+00  1.0449030979398886e+00  1.0453722807279042e+00  1.0456335889192139e+00  1.0456912306441175e+00  1.1381318892517063e+00  1.1380953689175071e+00  1.1379049933875949e+00  1.1375623643209241e+00  1.1370958743766106e+00  0.0000000000000000e+00  1.3369027565275653e+00  1.3364326977318062e+00  1.3361684942326655e+00  1.3360886473520022e+00  1.3361932172263495e+00  1.3364877088958520e+00  1.3369705678467894e+00  0.0000000000000000e+00  1.1357371028673682e+00  1.1362298282168779e+00  1.1365721960308783e+00  1.1367618982700700e+00  1.1368026018772559e+00  1.2297614752071311e+00  1.2297443427380006e+00  1.2296404379507688e+00  1.2294535783425220e+00  1.2292208188595348e+00  0.0000000000000000e+00  1.3293571179850472e+00  1.3291097572193724e+00  1.3289775625488602e+00  1.3289416193884931e+00  1.3290037588720272e+00  1.3291686482936809e+00  1.3294278479736923e+00  0.0000000000000000e+00  1.2279435198462405e+00  1.2281967110400183e+00  1.2283760440376486e+00  1.2284743096176702e+00  1.2284944098778674e+00  1.3216878426718091e+00  1.3216917300760371e+00  1.3216853601158951e+00  1.3216744512135588e+00  1.3217011980253217e+00  0.0000000000000000e+00  1.3213768659944909e+00  1.3213796817094361e+00  1.3213946122290152e+00  1.3214073192771896e+00  1.3214211913577747e+00  1.3214396450209038e+00  1.3214481370675859e+00  0.0000000000000000e+00  1.3205132667894000e+00  1.3205013957899090e+00  1.3204996095140416e+00  1.3204968059912394e+00  1.3204949908478119e+00  1.4136143340777059e+00  1.4136384911230890e+00  1.4137298899255302e+00  1.4138956841246120e+00  1.4141792597245826e+00  0.0000000000000000e+00  1.3133932867877123e+00  1.3136464699410959e+00  1.3138075955139916e+00  1.3138683770476027e+00  1.3138334232816899e+00  1.3137046012074645e+00  1.3134626685493300e+00  0.0000000000000000e+00  1.4130809165894747e+00  1.4128072677310330e+00  1.4126260033653186e+00  1.4125235369269049e+00  1.4125009417122878e+00  1.5052443841723764e+00  1.5052858491885255e+00  1.5054645687328758e+00  1.5057885903115122e+00  1.5062983012872455e+00  0.0000000000000000e+00  1.3058388101171443e+00  1.3063153046678559e+00  1.3066057491876450e+00  1.3067087724522435e+00  1.3066297581862332e+00  1.3063688405400455e+00  1.3059040387194218e+00  0.0000000000000000e+00  1.5052839808966234e+00  1.5047800407733760e+00  1.5044402692564895e+00  1.5042502817583512e+00  1.5042103034880518e+00  1.5963143201249388e+00  1.5963682139434214e+00  1.5966142281183637e+00  1.5970606387071415e+00  1.5977409201880033e+00  0.0000000000000000e+00  1.2990999498175240e+00  1.2997482542409065e+00  1.3001369466307906e+00  1.3002717281335068e+00  1.3001582188103189e+00  1.2997947949120650e+00  1.2991591356118499e+00  0.0000000000000000e+00  1.5968014602794154e+00  1.5961235694803011e+00  1.5956632279016991e+00  1.5954071669846233e+00  1.5953550383638457e+00  1.6866201134096535e+00  1.6866803476033132e+00  1.6869663248929365e+00  1.6874864001109662e+00  1.6882630532206613e+00  0.0000000000000000e+00  1.2934743583867769e+00  1.2942240444672752e+00  1.2946689915402820e+00  1.2948214939397860e+00  1.2946868409583301e+00  1.2942617599437478e+00  1.2935262442267448e+00  0.0000000000000000e+00  1.6873884650744182e+00  1.6866114953501050e+00  1.6860810936901547e+00  1.6857873339684650e+00  1.6857294814274539e+00  1.7760437738962804e+00  1.7761034138136336e+00  1.7763979725638144e+00  1.7769353164449286e+00  1.7777241509892507e+00  0.0000000000000000e+00  1.2891369929706786e+00  1.2899062147623999e+00  1.2903593125987649e+00  1.2905137511616003e+00  1.2903736863881283e+00  1.2899342274507919e+00  1.2891806389590237e+00  0.0000000000000000e+00  1.7769025912706191e+00  1.7761106228896621e+00  1.7755681563908265e+00  1.7752685103216101e+00  1.7752117385451101e+00  1.8645533263740122e+00  1.8646062907279148e+00  1.8648795861646073e+00  1.8653790246934601e+00  1.8660952292134043e+00  0.0000000000000000e+00  1.2861172654898831e+00  1.2868248883190552e+00  1.2872387168965174e+00  1.2873789866279239e+00  1.2872479500089773e+00  1.2868410649501401e+00  1.2861520239826492e+00  0.0000000000000000e+00  1.8653151343743120e+00  1.8645979588185286e+00  1.8640990785051137e+00  1.8638245240029947e+00  1.8637748761481439e+00  1.9522245169489481e+00  1.9522686053831879e+00  1.9524907956235067e+00  1.9528923762294066e+00  1.9534547113455270e+00  0.0000000000000000e+00  1.2842999799169279e+00  1.2848766617684746e+00  1.2852076187936743e+00  1.2853201925407771e+00  1.2852162652719730e+00  1.2848896942075094e+00  1.2843376303688141e+00  0.0000000000000000e+00  1.9527518770245000e+00  1.9521549960654241e+00  1.9517479042493706e+00  1.9515239911418922e+00  1.9514862509698749e+00  2.0391858462823058e+00  2.0392123313159036e+00  2.0393729465511621e+00  2.0396989328266790e+00  2.0401314667403949e+00  0.0000000000000000e+00  1.2834565745593096e+00  1.2838289440036459e+00  1.2840617103172360e+00  1.2841410684272696e+00  1.2840654316494207e+00  1.2838151220267238e+00  1.2834298034738549e+00  0.0000000000000000e+00  2.0393127637506434e+00  2.0389544488921949e+00  2.0386734072441914e+00  2.0385175857731124e+00  2.0384929611214728e+00  2.1256334437343853e+00  2.1256542685262287e+00  2.1257645280294755e+00  2.1259493119077439e+00  2.1261128905349409e+00  0.0000000000000000e+00  1.2830771335124382e+00  1.2834216441912083e+00  1.2835270630245670e+00  1.2835838810340832e+00  1.2835375785322947e+00  1.2834268745043294e+00  1.2832447948483086e+00  0.0000000000000000e+00  2.1255542557764313e+00  2.1252595514387007e+00  2.1250950543119842e+00  2.1250054827265563e+00  2.1249953250929714e+00  2.2117845314572504e+00  2.2117819189244243e+00  2.2118129325192375e+00  2.2118263727100924e+00  2.2118814155739055e+00  0.0000000000000000e+00  1.2838126833556474e+00  1.2832501437594748e+00  1.2833285897613309e+00  1.2833995380778445e+00  1.2833428327673102e+00  1.2833373052186563e+00  1.2831998810266860e+00  0.0000000000000000e+00  2.2111578058428729e+00  2.2112250608635757e+00  2.2112221995724495e+00  2.2112119241461761e+00  2.2112089821437158e+00  2.2977529067668834e+00  2.2977793136586970e+00  2.2977775493755375e+00  2.2977848928866158e+00  2.2978319704588630e+00  0.0000000000000000e+00  0.0000000000000000e+00  0.0000000000000000e+00  0.0000000000000000e+00  0.0000000000000000e+00  0.0000000000000000e+00  0.0000000000000000e+00  0.0000000000000000e+00  0.0000000000000000e+00  2.2972518800373769e+00  2.2972919117435113e+00  2.2973054211338200e+00  2.2973217881794423e+00  2.2973488925522823e+00  2.3839250384387487e+00  2.3838877625991000e+00  2.3838941415274011e+00  2.3839126467579734e+00  2.3838733292912972e+00  0.0000000000000000e+00  0.0000000000000000e+00  0.0000000000000000e+00  0.0000000000000000e+00  0.0000000000000000e+00  0.0000000000000000e+00  0.0000000000000000e+00  0.0000000000000000e+00  0.0000000000000000e+00  2.3836031456783049e+00  2.3835559261747901e+00  2.3835710665209247e+00  2.3836014461931239e+00  2.3835790252852722e+00  2.4695854291836188e+00  2.4695493689021846e+00  2.4695839563129316e+00  2.4695198652933290e+00  2.4694526230547980e+00  0.0000000000000000e+00  0.0000000000000000e+00  0.0000000000000000e+00  0.0000000000000000e+00  0.0000000000000000e+00  0.0000000000000000e+00  0.0000000000000000e+00  0.0000000000000000e+00  0.0000000000000000e+00  2.4693787836171404e+00  2.4693508706767990e+00  2.4693859947530901e+00  2.4693272004746700e+00  2.4692698573305574e+00  2.5552839594163212e+00  2.5559705645442992e+00  2.5562801197485783e+00  2.5566336237872886e+00  2.5572755113549608e+00  0.0000000000000000e+00  0.0000000000000000e+00  0.0000000000000000e+00  0.0000000000000000e+00  0.0000000000000000e+00  0.0000000000000000e+00  0.0000000000000000e+00  0.0000000000000000e+00  0.0000000000000000e+00  2.5552490374623078e+00  2.5558955073123597e+00  2.5561833781530838e+00  2.5565166456539177e+00  2.5571320832722773e+00  2.6456314707035911e+00  2.6418382591405498e+00  2.6411980969095015e+00  2.6417783172642650e+00  2.6396723663150126e+00  0.0000000000000000e+00  0.0000000000000000e+00  0.0000000000000000e+00  0.0000000000000000e+00  0.0000000000000000e+00  0.0000000000000000e+00  0.0000000000000000e+00  0.0000000000000000e+00  0.0000000000000000e+00  2.6456052495648161e+00  2.6418444501346228e+00  2.6412027825593856e+00  2.6417781242991021e+00  2.6396926694682818e+00  </DataArray> 
</PointData> 
</Piece>
</UnstructuredGrid>
</VTKFile>