<?xml version="1.0"?>
<VTKFile type="UnstructuredGrid"  version="0.1"  >
<UnstructuredGrid>
<Piece  NumberOfPoints="589" NumberOfCells="1080">
<Points>
<DataArray  type="Float64"  NumberOfComponents="3"  format="ascii">-9 0 0  -8 0 0  -7 0 0  -6 0 0  -5 0 0  -4 0 0  -3 0 0  -2 0 0  -1 0 0  0 0 0  1 0 0  2 0 0  3 0 0  4 0 0  5 0 0  6 0 0  7 0 0  8 0 0  9 0 0  -9 2 0  -8.000007712469467 1.999988039675398 0  -7.000016188983979 1.99997758540768 0  -6.000027254137043 1.999969864028696 0  -5.000045101473259 1.999965425646873 0  -4.000026343409096 1.999974046917465 0  -3.00000707578302 1.99998240260633 0  -1.999997755364421 1.999990319512168 0  -0.9999963669172666 1.999996575140748 0  7.680554513042933e-08 1.999999295882406 0  0.9999962043079019 1.999997324549311 0  1.999996525996663 1.999991111019883 0  3.000004083542086 1.99998348606233 0  4.000019850895448 1.999975283113999 0  5.000042795231364 1.999971773525517 0  6.000025945425145 1.999973007697018 0  7.000015489467549 1.999979201418569 0  8.000007413353895 1.999988747055341 0  9 2 0  -9.000000000004983 4 0  -8.000012368583263 3.999970055946927 0  -7.000022023471908 3.999944239870152 0  -6.00002737945838 3.999926596402212 0  -5.000028772633669 3.999920983561897 0  -4.000001204733334 3.999924962077441 0  -2.99998276406758 3.999948740268968 0  -1.999978102308514 3.999979755459047 0  -0.9999853990894089 4.000004714304437 0  8.081708880704932e-07 4.000014708547925 0  0.9999867551742572 4.000006637442372 0  1.999978590336646 3.999985058633993 0  2.9999824814606 3.999955844340807 0  4.000000326643538 3.99992635024306 0  5.000027638064524 3.999916105083223 0  6.000026315257918 3.999926177785886 0  7.000021459313293 3.999944996120947 0  8.000012175290879 3.99997066585453 0  9 4 0  -9 6 0  -8.000027878429259 5.999935564427675 0  -7.000045053489328 5.999878207717065 0  -6.000043355984209 5.999835209974989 0  -5.000020435572663 5.999813559693764 0  -3.999966278161343 5.999848822230597 0  -2.999941702095865 5.999922759194689 0  -1.999951540916454 6.000000325759246 0  -0.9999759828603999 6.000043483363287 0  -7.82371869058469e-07 6.00005206635112 0  0.9999768473487295 6.000037866270389 0  1.999959751862324 5.999998702712412 0  2.999953326483788 5.999932523855555 0  3.999966257025665 5.999863783877157 0  5.000012923423435 5.999829408751386 0  6.000040817587177 5.999844368981148 0  7.000045140288156 5.999883389419421 0  8.000028500575052 5.999937930992781 0  9 6 0  -9 8 0  -8.000086189689675 7.999872776028663 0  -7.000143566425623 7.999754760299651 0  -6.000144219663087 7.999658454155789 0  -5.000064252579305 7.999604454693506 0  -3.999959289589121 7.999767899219495 0  -2.999978448706404 7.99996005957923 0  -2.000017719901565 8.000053855050567 0  -1.000021083732377 8.000064733699515 0  2.278710286753092e-06 8.000067944776525 0  1.000019603138848 8.000077464208534 0  2.000012034841941 8.000037758424696 0  2.999965765431643 7.999970248243358 0  3.999949932743474 7.999803156840915 0  5.000053894462 7.999614564831909 0  6.000149590846197 7.999666348251371 0  7.00015265363984 7.999759720351619 0  8.00009225443403 7.999875103182847 0  9 8 0  -9 10 0  -8.000259656165747 9.999773232498699 0  -7.000468869679275 9.999544595339945 0  -6.000567465062995 9.999312670754991 0  -5.000471605050303 9.999077121327723 0  -4.000305255662796 9.999604883829424 0  -3.00033214033759 10.00005873448515 0  -2.000264530281107 9.999981075972926 0  -1.000118359886159 9.999956144286664 0  -1.045531895664498e-05 9.999950039091084 0  1.000096787071048 9.999950437679541 0  2.000239945092037 9.99994730149675 0  3.000365449147894 10.00011229027754 0  4.000348949288281 9.999675933459359 0  5.000540327384036 9.999100023716805 0  6.000628686773234 9.999322136535527 0  7.000513881065816 9.999548099936165 0  8.000283341437077 9.999774277497197 0  9 10 0  -9 12 0  -8.000634445609611 11.9996813338043 0  -7.001235913911705 11.99934786061189 0  -6.001767117720423 11.99898187585402 0  -5.002181740727977 11.99855870375582 0  -4.002096737587228 11.99952076891476 0  -3.002173229958944 12.00047310195382 0  -2.001483077209857 12.00035919776798 0  -1.000716673915815 12.00029828983057 0  7.819254314424453e-05 12.00028780604937 0  1.000880058977087 12.00032986231589 0  2.001670563875115 12.00043627605106 0  3.002413235270762 12.00063649391769 0  4.002329311058579 11.99958744379478 0  5.002385196443685 11.99852955819397 0  6.001919395874412 11.99896290123 0  7.001337519716579 11.99933585536601 0  8.000685314623658 11.9996754161129 0  9 12 0  -9 14 0  -8.001140220863375 13.99964885096295 0  -7.002282536821979 13.99928149747649 0  -6.003430561531288 13.99888030577542 0  -5.004591769199456 13.99842483655609 0  -4.004603974551666 13.99954858100799 0  -3.004610495616102 14.00068644859227 0  -2.00300837232373 14.00052568153012 0  -1.001429588718822 14.0004390462144 0  0.0001390948992253493 14.00041569853268 0  1.001710189236755 14.00045221172087 0  2.003295167144337 14.00055054582104 0  3.004902846583918 14.00071600609685 0  4.004914193730855 13.99954614926298 0  5.004922267076762 13.99838335435102 0  6.003672105204357 13.9988459757991 0  7.002441124591225 13.99925763601744 0  8.001218883607212 13.99963670989974 0  9 14 0  -9 16 0  -8.001636356797954 15.99968131096412 0  -7.003304249220503 15.9993507523747 0  -6.005037929990076 15.99899624521277 0  -5.006877171598754 15.99860547767279 0  -4.006943141903288 15.9995622806987 0  -3.006880628265119 16.00051392221865 0  -2.004443590570514 16.00039666192678 0  -1.002103522414014 16.00032747867933 0  0.0001904480495094689 16.00030489671931 0  1.002486372760451 16.00032801754847 0  2.004832277003318 16.00039705215066 0  3.007279223159552 16.00051307721609 0  4.007348519409107 15.99951563526399 0  5.007287823124676 15.99851736046065 0  6.005344187933193 15.99893341468503 0  7.003507403137787 15.99931012530182 0  8.001737607761077 15.99966133058189 0  9 16 0  -9 18 0  -8.002005020868044 17.99976128228846 0  -7.004060428578375 17.9995159337574 0  -6.006219222991644 17.99925744073539 0  -5.008539593545128 17.99897954613823 0  -4.008639187125986 17.99956513661429 0  -3.008542875914604 18.00014987343451 0  -2.005495149619144 18.00007618311854 0  -1.002595023352937 18.00003038578737 0  0.0002339444559952383 18.00001215483897 0  1.003064489825751 18.00002102191807 0  2.005969246585368 18.00005641634479 0  3.009024308899734 18.00011752187626 0  4.009126024741245 17.99949291519615 0  5.00902912644996 17.99887001669763 0  6.006584398195477 17.99917856463278 0  7.004302911382698 17.99946484341242 0  8.002125970454427 17.99973617147574 0  9 18 0  -9 20 0  -8.002170907720787 19.99986775713231 0  -7.004400621564883 19.99973372729104 0  -6.006750192008921 19.99959631853715 0  -5.00928515680467 19.99945431961966 0  -4.009398812848721 19.99956489173202 0  -3.009286200681743 19.99967449621017 0  -2.00596108933442 19.99964475980575 0  -1.002804146840369 19.99962367606985 0  0.0002710668714028291 19.99961166835769 0  1.003347868498105 19.99960854463185 0  2.006509553247925 19.99961351933717 0  3.009842510253125 19.99962515913026 0  4.009957685934484 19.99948172571023 0  5.009844092471732 19.99933941974578 0  6.007167031763988 19.99951288931567 0  7.004677392047625 19.9996794125609 0  8.002308957255051 19.99984099075562 0  8.999999999984151 19.9999999999934 0  -9 22 0  -8.002100428377434 21.9999813582852 0  -7.004258954196597 21.99996503452482 0  -6.00653550444362 21.9999535671509 0  -5.008993646157097 21.99994994064281 0  -4.009104928207391 21.99956012593086 0  -3.008994211640847 21.99916920933088 0  -2.00575921859303 21.99917893743708 0  -1.002688637244442 21.99918089403618 0  0.0003018527859698943 21.99917587869021 0  1.003294026276335 21.99916389017396 0  2.006369661069497 21.99914414162705 0  3.009613090344639 21.99911504566604 0  4.009724294859448 21.99947828598096 0  5.009610562054069 21.99984209417044 0  6.006995544007943 21.9998749850948 0  7.004564383368417 21.9999137368351 0  8.002252759882092 21.99995603652723 0  9 22 0  -9 24 0  -8.001796376886825 24.00008569138968 0  -7.003642688766982 24.00017691966836 0  -6.005590289986968 24.00027944961892 0  -5.007693270242116 24.00039951901661 0  -4.007789180445471 23.99955096424663 0  -3.007694693797264 23.99870137938241 0  -2.004904440503483 23.99874401351218 0  -1.002254943725599 23.99876582374215 0  0.0003260297495778843 23.99876780482272 0  1.002908783591827 23.99875008666634 0  2.005563635980533 23.99871193832684 0  3.008362866245847 23.99865176205612 0  4.008456149540798 23.99948047246702 0  5.008355920557206 24.00030942538256 0  6.006084375901719 24.00021360382293 0  7.003970694505502 24.00013384318796 0  8.001959957321194 24.00006439977631 0  9 24 0  -9 26 0  -8.001291229144638 26.00016790420832 0  -7.002618595611466 26.00034361708126 0  -6.004019247038297 26.00053517967041 0  -5.005532133720949 26.00075111757869 0  -4.005602734237875 25.99953792025393 0  -3.005535283201997 25.99832388771613 0  -2.003491213761036 25.99839195407468 0  -1.001549230148954 25.99842964122418 0  0.0003432844405856601 25.99843809470365 0  1.002237639240378 25.99841756019262 0  2.004185160491581 25.99836738452864 0  3.006238517072089 25.99828601336866 0  4.006303529461732 25.99948633010287 0  5.006227246554227 26.0006866569998 0  6.004537545439111 26.0004879713476 0  7.002962678535663 26.00031268537986 0  8.00146282829933 26.0001526001716 0  9 26 0  -9 28 0  -8.000639950260361 28.00021891281772 0  -7.001298485384152 28.00044693696019 0  -6.001994769151391 28.00069342065803 0  -5.002748823004453 28.00096819411086 0  -4.002787284795395 27.99952217276877 0  -3.002753943443821 27.99807565803476 0  -2.001674133876124 27.99816095621486 0  -1.000647673900395 27.99820993263903 0  0.0003533783508505369 27.99822386813045 0  1.001356283143853 27.99820311932281 0  2.002388314635492 27.99814711945023 0  3.003477457619093 27.99805437677569 0  4.003507589022385 27.99949452218408 0  5.003462623956275 28.00093459227954 0  6.002527057905117 28.0006687629568 0  7.001651885696736 28.00043075647648 0
[...]
<PointData  Scalars="f_44-1"> 
<DataArray  type="Float64"  Name="f_44-1"  format="ascii">1.4087876936477138e-03  -1.3921020761532788e-07  4.4901847712161991e-05  4.1213599566332983e-05  -1.2123224520410240e-03  0.0000000000000000e+00  0.0000000000000000e+00  0.0000000000000000e+00  0.0000000000000000e+00  0.0000000000000000e+00  0.0000000000000000e+00  0.0000000000000000e+00  0.0000000000000000e+00  0.0000000000000000e+00  1.4137467897460834e-03  2.1844599027678731e-06  4.7353708966864232e-05  3.3859745078925866e-05  -1.2219231724189799e-03  8.8298997383945976e-02  8.8313895220460417e-02  8.8131242452289316e-02  8.7843585813201452e-02  8.7717499985404540e-02  0.0000000000000000e+00  0.0000000000000000e+00  0.0000000000000000e+00  0.0000000000000000e+00  0.0000000000000000e+00  0.0000000000000000e+00  0.0000000000000000e+00  0.0000000000000000e+00  0.0000000000000000e+00  8.8179212854383487e-02  8.8185407920023107e-02  8.7994206894612431e-02  8.7705077803266376e-02  8.7575695223272243e-02  1.7620798681960198e-01  1.7618725884255296e-01  1.7614144990728864e-01  1.7610117534488876e-01  1.7612027798959051e-01  0.0000000000000000e+00  0.0000000000000000e+00  0.0000000000000000e+00  0.0000000000000000e+00  0.0000000000000000e+00  0.0000000000000000e+00  0.0000000000000000e+00  0.0000000000000000e+00  0.0000000000000000e+00  1.7592240827273861e-01  1.7592853368260644e-01  1.7590401358086122e-01  1.7586618207774818e-01  1.7587651184289016e-01  2.6425538227517514e-01  2.6425777268030265e-01  2.6426915934977163e-01  2.6428533251130476e-01  2.6428083834252697e-01  0.0000000000000000e+00  0.0000000000000000e+00  0.0000000000000000e+00  0.0000000000000000e+00  0.0000000000000000e+00  0.0000000000000000e+00  0.0000000000000000e+00  0.0000000000000000e+00  0.0000000000000000e+00  2.6386533096504411e-01  2.6385974101898702e-01  2.6386786456674682e-01  2.6387664144153578e-01  2.6388488544499894e-01  3.5234849237253824e-01  3.5233276645419864e-01  3.5227243075556641e-01  3.5214223974539288e-01  3.5205962328212642e-01  0.0000000000000000e+00  0.0000000000000000e+00  0.0000000000000000e+00  0.0000000000000000e+00  0.0000000000000000e+00  0.0000000000000000e+00  0.0000000000000000e+00  0.0000000000000000e+00  0.0000000000000000e+00  3.5173879151106691e-01  3.5182435918054306e-01  3.5186212752045276e-01  3.5188564391967930e-01  3.5189953657439976e-01  4.4055311397385782e-01  4.4053764992398864e-01  4.4049578036089371e-01  4.4047247331000244e-01  4.4045339062054173e-01  0.0000000000000000e+00  1.3856608188011508e+00  1.3855230614716854e+00  1.3855327554873065e+00  1.3854812392386431e+00  1.3855474491165596e+00  1.3856083501276764e+00  1.3850093610998837e+00  0.0000000000000000e+00  4.3983365615370834e-01  4.3987709094571709e-01  4.3990609369421158e-01  4.3994264422131468e-01  4.3996150204746631e-01  5.2887322543002135e-01  5.2884772416109438e-01  5.2876584200720100e-01  5.2864362126338404e-01  5.2840570889666683e-01  0.0000000000000000e+00  1.3856225666373509e+00  1.3854585356204008e+00  1.3853579382064229e+00  1.3853136144762661e+00  1.3853664954184028e+00  1.3854629387634900e+00  1.3857980789300359e+00  0.0000000000000000e+00  5.2768637064324497e-01  5.2786416540006897e-01  5.2801273044466868e-01  5.2809412079869633e-01  5.2812417152922142e-01  6.1743081801546851e-01  6.1739211921394133e-01  6.1724840097469014e-01  6.1700656497616269e-01  6.1662279343290016e-01  0.0000000000000000e+00  1.3854906104723417e+00  1.3851170687793284e+00  1.3848742983153366e+00  1.3848007573555143e+00  1.3848760979239365e+00  1.3850986983097127e+00  1.3854558206404859e+00  0.0000000000000000e+00  6.1565638265500233e-01  6.1605647625694981e-01  6.1632122484805330e-01  6.1648092670499022e-01  6.1652782162662068e-01  7.0641593116902102e-01  7.0636408396790973e-01  7.0615341531811893e-01  7.0578394474508011e-01  7.0521774378894797e-01  0.0000000000000000e+00  1.3846457967783508e+00  1.3841123693226383e+00  1.3837964609017075e+00  1.3836952659894597e+00  1.3838028065966599e+00  1.3841210057699329e+00  1.3846768508942862e+00  0.0000000000000000e+00  7.0407004826773834e-01  7.0467659757313450e-01  7.0508856409114118e-01  7.0532269462618191e-01  7.0538424630341756e-01  7.9602965947455562e-01  7.9596843462613942e-01  7.9570544956528233e-01  7.9523758830407432e-01  7.9453921316087117e-01  0.0000000000000000e+00  1.3829360186464570e+00  1.3822695756504531e+00  1.3818756178777190e+00  1.3817483247427349e+00  1.3818831523753676e+00  1.3822824452019611e+00  1.3829659770164224e+00  0.0000000000000000e+00  7.9331766160777584e-01  7.9405383692540255e-01  7.9455644978718432e-01  7.9484123816161878e-01  7.9491183047913683e-01  8.8642818566768466e-01  8.8636380702058937e-01  8.8607564309931786e-01  8.8556032511341698e-01  8.8480612819405202e-01  0.0000000000000000e+00  1.3800631853329417e+00  1.3793343270880731e+00  1.3789088659392261e+00  1.3787729886030349e+00  1.3789218968802854e+00  1.3793598370340501e+00  1.3801034031738659e+00  0.0000000000000000e+00  8.8356103520619866e-01  8.8435197111034491e-01  8.8489311467855836e-01  8.8519769220128686e-01  8.8527003570292973e-01  9.7768641847634985e-01  9.7762591313637703e-01  9.7734456067787800e-01  9.7684019372826014e-01  9.7611460658180449e-01  0.0000000000000000e+00  1.3759301996373596e+00  1.3752185826879615e+00  1.3748069356203931e+00  1.3746763884828244e+00  1.3748237422070388e+00  1.3752543085317470e+00  1.3759794697959153e+00  0.0000000000000000e+00  9.7489037226059294e-01  9.7564899390436777e-01  9.7616941160423198e-01  9.7646094969763031e-01  9.7652799489222486e-01  1.0697829540287132e+00  1.0697329752160014e+00  1.0694899254326808e+00  1.0690535415998419e+00  1.0684379663718728e+00  0.0000000000000000e+00  1.3705646845444250e+00  1.3699489740637285e+00  1.3695966541352020e+00  1.3694865044855060e+00  1.3696169655020898e+00  1.3699936258038279e+00  1.3706214039243294e+00  0.0000000000000000e+00  1.0672682396082005e+00  1.0679115576035096e+00  1.0683540038336716e+00  1.0686008087923520e+00  1.0686558601309419e+00  1.1626013700419811e+00  1.1625673162932371e+00  1.1623895024660773e+00  1.1620698008336154e+00  1.1616328619102450e+00  0.0000000000000000e+00  1.3641320619801875e+00  1.3636803714968699e+00  1.3634265762790718e+00  1.3633495745207178e+00  1.3634495453437512e+00  1.3637317973214951e+00  1.3641943997725932e+00  0.0000000000000000e+00  1.1605394488563125e+00  1.1609982359772926e+00  1.1613150050835810e+00  1.1614906667959835e+00  1.1615283878781866e+00  1.2559439882612866e+00  1.2559293825232289e+00  1.2558361537236933e+00  1.2556682010480893e+00  1.2554581422507582e+00  0.0000000000000000e+00  1.3569148437657035e+00  1.3566769265058989e+00  1.3565499234638771e+00  1.3565151617678117e+00  1.3565744980034511e+00  1.3567324701866572e+00  1.3569804583812592e+00  0.0000000000000000e+00  1.2544522419247257e+00  1.2546782120855791e+00  1.2548359373431903e+00  1.2549222068877428e+00  1.2549392730614546e+00  1.3495549135852700e+00  1.3495610502741653e+00  1.3495622051285157e+00  1.3495639628917118e+00  1.3496038326064421e+00  0.0000000000000000e+00  1.3492810160740392e+00  1.3492831139266250e+00  1.3492972849678933e+00  1.3493092396122248e+00  1.3493222970949126e+00  1.3493398285490585e+00  1.3493473256002957e+00  0.0000000000000000e+00  1.3486872513517074e+00  1.3486578185092173e+00  1.3486407654023247e+00  1.3486293321972218e+00  1.3486247686156712e+00  1.4431489834231570e+00  1.4431748175231305e+00  1.4432697048516716e+00  1.4434404487227213e+00  1.4437259733041210e+00  0.0000000000000000e+00  1.3416442275030533e+00  1.3418864846399625e+00  1.3420408631322436e+00  1.3420989184549428e+00  1.3420651052139345e+00  1.3419413361752401e+00  1.3417086089978076e+00  0.0000000000000000e+00  1.4428930270241076e+00  1.4426132653340178e+00  1.4424246662574358e+00  1.4423178532975351e+00  1.4422930892541339e+00  1.5364431610034031e+00  1.5364854981279388e+00  1.5366632520902614e+00  1.5369839198589417e+00  1.5374841149746459e+00  0.0000000000000000e+00  1.3344192675445021e+00  1.3348757662327337e+00  1.3351541336489723e+00  1.3352526432877665e+00  1.3351764605497909e+00  1.3349258568144058e+00  1.3344792574347317e+00  0.0000000000000000e+00  1.5367238163861550e+00  1.5362256818108604e+00  1.5358871872630644e+00  1.5356975587301402e+00  1.5356562130670444e+00  1.6291876471986988e+00  1.6292414918956521e+00  1.6294821890622462e+00  1.6299173278005976e+00  1.6305776681793249e+00  0.0000000000000000e+00  1.3279770640539932e+00  1.3285984770978863e+00  1.3289710185514247e+00  1.3290998774292078e+00  1.3289904264810686e+00  1.3286412477473495e+00  1.3280305445072265e+00  0.0000000000000000e+00  1.6298761859917601e+00  1.6292151398346950e+00  1.6287644055394503e+00  1.6285133125376279e+00  1.6284607487463412e+00  1.7211913437726221e+00  1.7212505355301979e+00  1.7215274180656943e+00  1.7220295705070419e+00  1.7227780801904653e+00  0.0000000000000000e+00  1.3226035518686710e+00  1.3233223757843076e+00  1.3237487825928778e+00  1.3238944751414368e+00  1.3237644911464643e+00  1.3233558084222217e+00  1.3226489953639367e+00  0.0000000000000000e+00  1.7221216275743940e+00  1.7213704603236828e+00  1.7208568470029324e+00  1.7205720693091842e+00  1.7205147430999816e+00  1.8123460594739682e+00  1.8124038649287522e+00  1.8126866685347383e+00  1.8132014764544000e+00  1.8139569993097242e+00  0.0000000000000000e+00  1.3184671494115221e+00  1.3192048248028578e+00  1.3196388753740342e+00  1.3197861930492816e+00  1.3196507143799556e+00  1.3192278081851598e+00  1.3185032948654636e+00  0.0000000000000000e+00  1.8133311171384161e+00  1.8125710709653520e+00  1.8120506188667203e+00  1.8117629581675172e+00  1.8117075993548264e+00  1.9026268349532087e+00  1.9026771957841009e+00  1.9029370149446885e+00  1.9034115291766449e+00  1.9040929085325922e+00  0.0000000000000000e+00  1.3155965763181896e+00  1.3162751296622417e+00  1.3166711754631957e+00  1.3168045865630285e+00  1.3166774452913121e+00  1.3162853819859950e+00  1.3156225507814019e+00  0.0000000000000000e+00  1.9034858397221808e+00  1.9028024851305820e+00  1.9023284965751994e+00  1.9020676504120193e+00  1.9020201421128931e+00  1.9921105393825878e+00  1.9921515778022270e+00  1.9923607372989982e+00  1.9927392146203240e+00  1.9932698368829853e+00  0.0000000000000000e+00  1.3138818603920317e+00  1.3144340728690092e+00  1.3147499001632112e+00  1.3148563369720059e+00  1.3147551643504247e+00  1.3144403088623589e+00  1.3139092540232189e+00  0.0000000000000000e+00  1.9927124587809668e+00  1.9921501464939109e+00  1.9917683766705312e+00  1.9915584104067405e+00  1.9915232351186998e+00  2.0809246170239075e+00  2.0809483631998336e+00  2.0810971226241062e+00  2.0814009972720546e+00  2.0818043398327264e+00  0.0000000000000000e+00  1.3131023039189704e+00  1.3134569505964104e+00  1.3136782322328422e+00  1.3137527449535518e+00  1.3136786849541373e+00  1.3134355210888273e+00  1.3130632327922149e+00  0.0000000000000000e+00  2.0811190385112055e+00  2.0807872331012316e+00  2.0805282181465530e+00  2.0803850079827755e+00  2.0803630995587947e+00  2.1692593256583357e+00  2.1692769367528029e+00  2.1693767212839732e+00  2.1695438684141584e+00  2.1696855116257097e+00  0.0000000000000000e+00  1.3127601294722879e+00  1.3130952294167326e+00  1.3131911736994391e+00  1.3132435474640713e+00  1.3131988800129539e+00  1.3130981013231184e+00  1.3129333055938504e+00  0.0000000000000000e+00  2.1692369061140968e+00  2.1689670013387996e+00  2.1688220982907906e+00  2.1687429094458439e+00  2.1687349633611590e+00  2.2573209969847774e+00  2.2573176495153691e+00  2.2573428146282630e+00  2.2573475581232150e+00  2.2573909606509344e+00  0.0000000000000000e+00  1.3135527572917909e+00  1.3129525888262716e+00  1.3130133748587225e+00  1.3130790075271652e+00  1.3130277867940618e+00  1.3130374911234559e+00  1.3129006435272397e+00  0.0000000000000000e+00  2.2567648240607552e+00  2.2568464491352156e+00  2.2568524501058467e+00  2.2568476809388933e+00  2.2568468437693570e+00  2.3452273063298317e+00  2.3452510289712394e+00  2.3452459032604005e+00  2.3452478196052629e+00  2.3452881976159530e+00  0.0000000000000000e+00  0.0000000000000000e+00  0.0000000000000000e+00  0.0000000000000000e+00  0.0000000000000000e+00  0.0000000000000000e+00  0.0000000000000000e+00  0.0000000000000000e+00  0.0000000000000000e+00  2.3448046004909369e+00  2.3448435198748814e+00  2.3448580696783416e+00  2.3448750142519561e+00  2.3449007697557200e+00  2.4333211048821943e+00  2.4332822129382135e+00  2.4332872997377266e+00  2.4333049877605823e+00  2.4332649443558987e+00  0.0000000000000000e+00  0.0000000000000000e+00  0.0000000000000000e+00  0.0000000000000000e+00  0.0000000000000000e+00  0.0000000000000000e+00  0.0000000000000000e+00  0.0000000000000000e+00  0.0000000000000000e+00  2.4330640407285635e+00  2.4330152573392865e+00  2.4330301087648913e+00  2.4330611395204178e+00  2.4330398244705194e+00  2.5209435140764151e+00  2.5209150083695939e+00  2.5209512895828254e+00  2.5208824420637370e+00  2.5208196450111120e+00  0.0000000000000000e+00  0.0000000000000000e+00  0.0000000000000000e+00  0.0000000000000000e+00  0.0000000000000000e+00  0.0000000000000000e+00  0.0000000000000000e+00  0.0000000000000000e+00  0.0000000000000000e+00  2.5207827074897913e+00  2.5207611188207681e+00  2.5207975414812775e+00  2.5207339321141196e+00  2.5206809240063213e+00  2.6086088430064880e+00  2.6092672738635914e+00  2.6095435432582672e+00  2.6098859923001894e+00  2.6105082963223762e+00  0.0000000000000000e+00  0.0000000000000000e+00  0.0000000000000000e+00  0.0000000000000000e+00  0.0000000000000000e+00  0.0000000000000000e+00  0.0000000000000000e+00  0.0000000000000000e+00  0.0000000000000000e+00  2.6085949577055549e+00  2.6092138033127874e+00  2.6094692577499630e+00  2.6097919871508957e+00  2.6103883201550082e+00  2.7008865096202612e+00  2.6970381198423006e+00  2.6964394783933723e+00  2.6969994150460348e+00  2.6948627732988855e+00  0.0000000000000000e+00  0.0000000000000000e+00  0.0000000000000000e+00  0.0000000000000000e+00  0.0000000000000000e+00  0.0000000000000000e+00  0.0000000000000000e+00  0.0000000000000000e+00  0.0000000000000000e+00  2.7008574974149648e+00  2.6970445436106707e+00  2.6964441131170935e+00  2.6969991243608575e+00  2.6948842815906491e+00  </DataArray> 
</PointData> 
</Piece>
</UnstructuredGrid>
</VTKFile>