<?xml version="1.0"?>
<VTKFile type="UnstructuredGrid"  version="0.1"  >
<UnstructuredGrid>
<Piece  NumberOfPoints="589" NumberOfCells="1080">
<Points>
<DataArray  type="Float64"  NumberOfComponents="3"  format="ascii">-9 0 0  -8 0 0  -7 0 0  -6 0 0  -5 0 0  -4 0 0  -3 0 0  -2 0 0  -1 0 0  0 0 0  1 0 0  2 0 0  3 0 0  4 0 0  5 0 0  6 0 0  7 0 0  8 0 0  9 0 0  -9 2 0  -8.000005702624319 1.999991446979269 0  -7.000011942725729 1.999983955169343 0  -6.000020009674955 1.999978387333566 0  -5.000032872594661 1.999975125720387 0  -4.000019423694643 1.999981412364586 0  -3.000005629890533 1.999987404656772 0  -1.999998928351568 1.999993043771567 0  -0.9999978598820828 1.999997506570105 0  -3.165937202206059e-07 1.999999481066968 0  0.9999969535922376 1.999998169360088 0  1.999997102300425 1.999993906773925 0  3.000002234569619 1.999988700627961 0  4.000012973582315 1.999983201524542 0  5.000028512982624 1.999981175947906 0  6.000017125521457 1.999981818776044 0  7.000010167277334 1.999985919542434 0  8.000004855136652 1.999992362729189 0  9 2 0  -9 4 0  -8.000009255241428 3.99997864953035 0  -7.000016578078791 3.999960214751888 0  -6.00002083542547 3.999947549945583 0  -5.000022252924439 3.999943372270315 0  -4.000002655500511 3.999946396179474 0  -2.999989540862212 3.999963342432232 0  -1.999986172071212 3.999985374230665 0  -0.9999912601091506 4.000003112347269 0  -9.500030609910844e-07 4.000010306423525 0  0.9999891434634113 4.000004844531405 0  1.999983314724571 3.999989974335059 0  2.999985855216698 3.999969864690271 0  3.999998072709501 3.999949736161855 0  5.000016863340798 3.999943319289502 0  6.000016534104454 3.999949806060224 0  7.000013750046489 3.999962469831544 0  8.000007882096595 3.99997994956763 0  9 4 0  -9 6 0  -8.000020536941925 5.999954191357626 0  -7.000033475344695 5.999913396334593 0  -6.00003302056494 5.999882765854086 0  -5.000017518576334 5.999867227818803 0  -3.999979231867573 5.99989243216809 0  -2.999961878089099 5.999944907212427 0  -1.999968903687494 5.999999879398777 0  -0.9999862081121482 6.000030416987252 0  -3.681267642119891e-06 6.00003658628715 0  0.9999806332213247 6.000026817719228 0  1.999968668674051 5.99999971580305 0  2.999964113085111 5.999953915919811 0  3.999973003463775 5.999906501808016 0  5.000005412540922 5.999883212856197 0  6.000025761927671 5.99989308707034 0  7.000029667834575 5.999919758231999 0  8.000018964851256 5.999957255485532 0  9 6 0  -9 8 0  -8.000062206898107 7.999909688139875 0  -7.000103941725811 7.999825929889114 0  -6.000105392428479 7.999757621982668 0  -5.000049657076692 7.999719415545784 0  -3.999975382959789 7.999835468590624 0  -2.999989363979824 7.999971787591133 0  -2.000017527209974 8.000038099491123 0  -1.00002011120782 8.000045490020044 0  -3.652712268499246e-06 8.000047615942457 0  1.000008679544528 8.000054279049925 0  2.000003585722131 8.000026869661461 0  2.99997141705323 7.999980230305304 0  3.99996047107891 7.999864334328001 0  5.000032942814187 7.999733526208927 0  6.00010075643941 7.999769194133925 0  7.000104012944099 7.999833752813191 0  8.000063088054185 7.99991358029973 0  9 8 0  -9 10 0  -8.000185717275203 9.999839008996831 0  -7.00033549264995 9.999676721464844 0  -6.000406459937119 9.999512170599681 0  -5.000338959855203 9.999345166536669 0  -4.00022093591897 9.999720459636038 0  -3.000240797466156 10.00004306916014 0  -2.000193426075948 9.999986980085088 0  -1.000089998780859 9.999968985695384 0  -1.400506834784055e-05 9.999964599915137 0  1.000061277864791 9.999964988200652 0  2.000161432592212 9.999963168682767 0  3.000249577438454 10.0000786470723 0  4.000238471759606 9.999775449333963 0  5.000371570833221 9.999375258059313 0  6.00043387800394 9.999529816221083 0  7.000355019777467 9.999686715676198 0  8.000195822281913 9.999843563763996 0  9 10 0  -9 12 0  -8.00045277285167 11.99977359850942 0  -7.000881912812667 11.9995367057396 0  -6.001260696320553 11.99927677399887 0  -5.001555988280251 11.99897630004437 0  -4.001495299567589 11.99966178005113 0  -3.001550314555256 12.00034049663059 0  -2.001068096175789 12.00025794502334 0  -1.000530644954869 12.0002129124439 0  2.788480070285991e-05 12.00020352311536 0  1.000592250170011 12.00023114732319 0  2.001149649918362 12.00030394554359 0  3.001674883544262 12.00044238481868 0  4.001617208310046 11.99971421647891 0  5.001655600173481 11.9989800774967 0  6.001331162716763 11.99928125249861 0  7.000927134575072 11.99953999407535 0  8.000474903565253 11.99977526276095 0  9 12 0  -9 14 0  -8.000813899823495 13.99975024676952 0  -7.001629021973481 13.99948900797654 0  -6.00244763829007 13.99920378302846 0  -5.003274773027738 13.99888008075477 0  -4.003282931190383 13.99968300702741 0  -3.003288335914809 14.00049608233786 0  -2.002164564490414 14.00037900551956 0  -1.001055988819699 14.00031441806635 0  4.653331153727337e-05 14.00029453038718 0  1.001151748637761 14.00031678211992 0  2.002267798315443 14.00038240247055 0  3.003401078177352 14.00049497295952 0  4.003410086088913 13.9996862550688 0  5.003415065087556 13.99888258002025 0  6.002545716426618 13.99920278001745 0  7.001691421052685 13.99948737767495 0  8.000844276567634 13.9997492044117 0  9 14 0  -9 16 0  -8.001169508327337 15.99977289989557 0  -7.002361118333546 15.99953738717733 0  -6.003598839005197 15.99928490029213 0  -5.004910604093918 15.99900671997808 0  -4.004956921916889 15.99969404498735 0  -3.004913361701846 16.00037775066849 0  -2.003201872783463 16.00029061163685 0  -1.001557833356077 16.00023752958688 0  5.442943238833057e-05 16.00021734528042 0  1.001668655114019 16.00022930120286 0  2.003318606731327 16.00027341680293 0  3.005040208089289 16.00035031840745 0  4.005089538765511 15.99966572452701 0  5.005046566687157 15.99898059681932 0  6.003698206605533 15.99926696047817 0  7.002425983633298 15.99952601531506 0  8.001201510225778 15.99976736022506 0  9 16 0  -9 18 0  -8.00143604431344 17.99982922016244 0  -7.002907581740021 17.99965372912455 0  -6.004451949306913 17.99946889769737 0  -5.006110167215744 17.99927028490336 0  -4.006180458857856 17.99969698781346 0  -3.006112959904117 18.0001231380927 0  -2.003971460607748 18.00006640463064 0  -1.001933547930209 18.0000294795894 0  5.442988615938246e-05 18.00001202336815 0  1.002043531175196 18.00001359595792 0  2.004084743352147 18.00003368378729 0  3.006231470513241 18.00007159941948 0  4.00630309912949 17.99965027704321 0  5.006234964055896 17.99923019001859 0  6.004544033342714 17.99944053260198 0  7.002968221024343 17.9996355887485 0  8.001466134162582 17.99982037151476 0  9 18 0  -9 20 0  -8.001559991122717 19.99990437519789 0  -7.003161505162967 19.99980744905987 0  -6.004847654253108 19.999708057133 0  -5.006664731753415 19.99960530653781 0  -4.006745133038904 19.99969739603181 0  -3.006665976668631 19.99978889479986 0  -2.004329047781285 19.9997632707187 0  -1.00211063946247 19.99974387046469 0  4.98844731966497e-05 19.9997309009289 0  1.002210964226009 19.99972413389307 0  2.004431007774455 19.99972292103159 0  3.006770562278238 19.9997261557389 0  4.006851226547742 19.9996425183913 0  5.006771683798755 19.99955974644909 0  6.004927209228794 19.99967529501551 0  7.003214217463636 19.999786277418 0  8.001586247839549 19.99989398982606 0  8.999999999993246 19.99999999999801 0  -9 22 0  -8.001517275875759 21.99998472399827 0  -7.003075675138621 21.99997102971932 0  -6.004717615614911 21.99996065394888 0  -5.006488096581116 21.99995564650413 0  -4.006566913191291 21.99969447722102 0  -3.006488833169924 21.99943267132744 0  -2.004214929938034 21.99943534525343 0  -1.002057316033891 21.99943265119494 0  4.310861905114237e-05 21.9994250808613 0  1.00214364782472 21.99941255873623 0  2.004301581647732 21.99939445265329 0  3.006575940287645 21.99936956309531 0  4.006653552587926 21.99963999345706 0  5.006574290739296 21.999910947325 0  6.004782357610558 21.99992831739807 0  7.003118867822921 21.99995003391878 0  8.001538877192461 21.99997439442102 0  9 22 0  -9 24 0  -8.001309481321362 24.00005874643985 0  -7.002654440566252 24.00012133583917 0  -6.004071353187342 24.00019177283875 0  -5.005598638684376 24.00027438854259 0  -4.005666621715878 23.99968856316227 0  -3.005599628100051 23.99910218311097 0  -2.003637961774226 23.9991288012412 0  -1.001776300996198 23.99914085129608 0  3.592753107092934e-05 23.99913898095357 0  1.001847929506663 23.99912322547371 0  2.003708890554153 23.99909301042983 0  3.005669323620062 23.99904714720738 0  4.005734261224796 23.99964145671441 0  5.005664894011473 24.00023609764595 0  6.004121717803915 24.00016394173869 0  7.002688323094691 24.00010320474865 0  8.001326508537456 24.00004980768855 0  9 24 0  -9 26 0  -8.000959107017383 26.00011740908819 0  -7.001944077493972 26.0002402644908 0  -6.002981473074539 26.00037417562023 0  -5.00409914742812 26.0005250865541 0  -4.004149258004661 25.99968016708163 0  -3.004100930012873 25.99883482946187 0  -2.002663197369809 25.9988803214734 0  -1.001298563753604 25.99890452493235 0  2.974696595517539e-05 25.99890821041541 0  1.001357579411522 25.99889151308386 0  2.002720758032813 25.99885393323091 0  3.004155998282751 25.99879433428669 0  4.004201129244986 25.99964570940054 0  5.004148956030016 26.0004972593226 0  6.003019944764643 26.00035389243718 0  7.001970240771833 26.00022702212932 0  8.000972337237689 26.0001108716816 0  9 26 0  -9 28 0  -8.000504505580825 28.00015430024499 0  -7.001022603934318 28.00031497801323 0  -6.001568276191589 28.00048857625224 0  -5.002156134227681 28.0006819731494 0  -4.002183583963034 27.99967011660827 0  -3.002158949620166 27.99865805070084 0  -2.001398211282536 27.99871677697014 0  -1.000676519083497 27.99875004776209 0  2.557701408802243e-05 27.99875874393999 0  1.000727033405337 27.9987430971054 0  2.001446783988466 27.99870268972056 0  3.002204211237928 27.99863645387131 0  4.002224962086682 27.99965184256506 0  5.002195051115248 28.00066732081975 0  6.001598868537093 28.0004778742869 0  7.001043652982366 28.00030797978361 0  8.000515221533849
[...]
<PointData  Scalars="f_44-1"> 
<DataArray  type="Float64"  Name="f_44-1"  format="ascii">1.2867185426368279e-03  1.0023263736936020e-04  6.9921993507719002e-05  1.7688070810161597e-04  -1.5638045002332403e-03  0.0000000000000000e+00  0.0000000000000000e+00  0.0000000000000000e+00  0.0000000000000000e+00  0.0000000000000000e+00  0.0000000000000000e+00  0.0000000000000000e+00  0.0000000000000000e+00  0.0000000000000000e+00  1.3051062733678068e-03  1.0004017948084835e-04  7.0534983580443356e-05  1.7554258330110530e-04  -1.5945143342939289e-03  6.5040256435192789e-02  6.5098571846257128e-02  6.5061076890217007e-02  6.4887913869649608e-02  6.4802171797304020e-02  0.0000000000000000e+00  0.0000000000000000e+00  0.0000000000000000e+00  0.0000000000000000e+00  0.0000000000000000e+00  0.0000000000000000e+00  0.0000000000000000e+00  0.0000000000000000e+00  0.0000000000000000e+00  6.5233857682012439e-02  6.5292156161842238e-02  6.5253134024747195e-02  6.5077640965788025e-02  6.4991822013146058e-02  1.3010291801303553e-01  1.3009744996213268e-01  1.3006161399013919e-01  1.3004698844514945e-01  1.3006680987900351e-01  0.0000000000000000e+00  0.0000000000000000e+00  0.0000000000000000e+00  0.0000000000000000e+00  0.0000000000000000e+00  0.0000000000000000e+00  0.0000000000000000e+00  0.0000000000000000e+00  0.0000000000000000e+00  1.3047745802733815e-01  1.3047437479824378e-01  1.3044139390928600e-01  1.3043068939236932e-01  1.3045759064299181e-01  1.9514729894426860e-01  1.9514121212430835e-01  1.9513483020250796e-01  1.9512722765925505e-01  1.9510599969427830e-01  0.0000000000000000e+00  0.0000000000000000e+00  0.0000000000000000e+00  0.0000000000000000e+00  0.0000000000000000e+00  0.0000000000000000e+00  0.0000000000000000e+00  0.0000000000000000e+00  0.0000000000000000e+00  1.9571906739994549e-01  1.9569934564716199e-01  1.9569196536687564e-01  1.9569075080614909e-01  1.9568739131449484e-01  2.6023054029345227e-01  2.6022181912695364e-01  2.6020742224798443e-01  2.6016850475952208e-01  2.6013476829235599e-01  0.0000000000000000e+00  0.0000000000000000e+00  0.0000000000000000e+00  0.0000000000000000e+00  0.0000000000000000e+00  0.0000000000000000e+00  0.0000000000000000e+00  0.0000000000000000e+00  0.0000000000000000e+00  2.6092194044722000e-01  2.6092242235227370e-01  2.6091664909126544e-01  2.6091776003636602e-01  2.6092030676668737e-01  3.2533805584415593e-01  3.2532529354515599e-01  3.2531264559839312e-01  3.2531747362708030e-01  3.2537795818322579e-01  0.0000000000000000e+00  1.0091664224480741e+00  1.0090780023138866e+00  1.0092297381300248e+00  1.0092534868281311e+00  1.0092434604799492e+00  1.0091027732597317e+00  1.0083776286165449e+00  0.0000000000000000e+00  3.2610703866457791e-01  3.2610653874547280e-01  3.2611464946520219e-01  3.2613440673506677e-01  3.2614494610702333e-01  3.9047226086203596e-01  3.9044805563680068e-01  3.9040053866199109e-01  3.9033396120473557e-01  3.9020399321766697e-01  0.0000000000000000e+00  1.0093407798090110e+00  1.0093635705927855e+00  1.0093665602594759e+00  1.0093424854483215e+00  1.0093394490025589e+00  1.0093378174940622e+00  1.0095005051078514e+00  0.0000000000000000e+00  3.9110813280895051e-01  3.9120740521871461e-01  3.9131605035752720e-01  3.9138214842544139e-01  3.9140673300701839e-01  4.5572007247783608e-01  4.5568169145298654e-01  4.5558499450764223e-01  4.5542790904030539e-01  4.5519668672151142e-01  0.0000000000000000e+00  1.0098535840821288e+00  1.0096210918619626e+00  1.0094627811370105e+00  1.0094049005964219e+00  1.0094256157583215e+00  1.0095193458787599e+00  1.0096896165442522e+00  0.0000000000000000e+00  4.5619569842205154e-01  4.5646269836086367e-01  4.5665861718253409e-01  4.5677509587976900e-01  4.5681491203662922e-01  5.2121086610346357e-01  5.2116011101423887e-01  5.2101747415175337e-01  5.2077921603474275e-01  5.2042525809550466e-01  0.0000000000000000e+00  1.0097673810566590e+00  1.0094503845161147e+00  1.0092534637951776e+00  1.0091768045998959e+00  1.0092164270641466e+00  1.0093724018542707e+00  1.0096624352994443e+00  0.0000000000000000e+00  5.2165212114791548e-01  5.2202676745192744e-01  5.2229686715206725e-01  5.2245646650359590e-01  5.2250809999653325e-01  5.8706868787635014e-01  5.8701032788522034e-01  5.8683644082768283e-01  5.8654285902135028e-01  5.8611194532098787e-01  0.0000000000000000e+00  1.0092109906429958e+00  1.0088099617729194e+00  1.0085657844621783e+00  1.0084748305764346e+00  1.0085343378174227e+00  1.0087448545338469e+00  1.0091222178506909e+00  0.0000000000000000e+00  5.8762451524028680e-01  5.8805752755198681e-01  5.8836341747739684e-01  5.8854455458422383e-01  5.8860175117749247e-01  6.5338030187411478e-01  6.5332047368345958e-01  6.5313524790845645e-01  6.5282115692476206e-01  6.5236321949625864e-01  0.0000000000000000e+00  1.0079767236555173e+00  1.0075374860493453e+00  1.0072753529095839e+00  1.0071807131094761e+00  1.0072518111271223e+00  1.0074904150149460e+00  1.0079081283309446e+00  0.0000000000000000e+00  6.5416630985017798e-01  6.5461179894430777e-01  6.5492204640713836e-01  6.5510517671768842e-01  6.5516182029213799e-01  7.2017987237343684e-01  7.2012491847931703e-01  7.1994944432001906e-01  7.1965096991044719e-01  7.1921769243822409e-01  0.0000000000000000e+00  1.0060044153010104e+00  1.0055747340869199e+00  1.0053220199608146e+00  1.0052324410959057e+00  1.0053053176642976e+00  1.0055431366746135e+00  1.0059532136077298e+00  0.0000000000000000e+00  7.2129795635195815e-01  7.2170509251652470e-01  7.2198483482229225e-01  7.2214961660269883e-01  7.2219940431717289e-01  7.8744511286965990e-01  7.8740074893913270e-01  7.8725461921869988e-01  7.8700531013673725e-01  7.8664481286616117e-01  0.0000000000000000e+00  1.0033093922118927e+00  1.0029360103738216e+00  1.0027193429782040e+00  1.0026432462717085e+00  1.0027080287260386e+00  1.0029165542383514e+00  1.0032712793363814e+00  0.0000000000000000e+00  7.8896631804255235e-01  7.8928914247855819e-01  7.8950716393953624e-01  7.8963533429576638e-01  7.8967277102520450e-01  8.5510090854694198e-01  8.5507159898613649e-01  8.5497080697572780e-01  8.5479810999536410e-01  8.5454968746606741e-01  0.0000000000000000e+00  9.9998810122557635e-01  9.9971145331987799e-01  9.9955370364682772e-01  9.9949822527338139e-01  9.9954625481873582e-01  9.9970074042585844e-01  9.9995919796027988e-01  0.0000000000000000e+00  8.5705842533498455e-01  8.5726043279541730e-01  8.5739237537542168e-01  8.5746974814365429e-01  8.5749072946807814e-01  9.2302879100634472e-01  9.2301728385312121e-01  9.2297258483064948e-01  9.2289503346166002e-01  9.2278514161151171e-01  0.0000000000000000e+00  9.9620748162492601e-01  9.9605704237869630e-01  9.9597455394538681e-01  9.9594466924886749e-01  9.9596943377588198e-01  9.9605161555143507e-01  9.9618407094716743e-01  0.0000000000000000e+00  9.2541396897434969e-01  9.2547188954700199e-01  9.2550272349009699e-01  9.2552066388230070e-01  9.2552290623900901e-01  9.9108075087123859e-01  9.9108780663565810e-01  9.9110365714980342e-01  9.9112909071662958e-01  9.9116872052346783e-01  0.0000000000000000e+00  9.9218541566442620e-01  9.9217659625505494e-01  9.9217741802041914e-01  9.9217536429457653e-01  9.9217311182021051e-01  9.9217302146249053e-01  9.9216395134878421e-01  0.0000000000000000e+00  9.9384241002925922e-01  9.9374868115861614e-01  9.9367436284519439e-01  9.9363072065609015e-01  9.9361399376895121e-01  1.0590960136799672e+00  1.0591203406974903e+00  1.0591944750628888e+00  1.0593193003617536e+00  1.0595029235349467e+00  0.0000000000000000e+00  9.8816650336638634e-01  9.8829906359832786e-01  9.8838205843102123e-01  9.8840703220228032e-01  9.8837706561483862e-01  9.8829392676126981e-01  9.8814351593203542e-01  0.0000000000000000e+00  1.0621435065631291e+00  1.0619071632069190e+00  1.0617351593769861e+00  1.0616345398409122e+00  1.0616006905457247e+00  1.1269189540822906e+00  1.1269573546444591e+00  1.1270810471908506e+00  1.1272906649822867e+00  1.1275968124577846e+00  0.0000000000000000e+00  9.8439515490193563e-01  9.8465322677989398e-01  9.8480812162312814e-01  9.8485629495957228e-01  9.8480094219789371e-01  9.8464311106575297e-01  9.8436712662279235e-01  0.0000000000000000e+00  1.1301289180400234e+00  1.1297748336466791e+00  1.1295234984040401e+00  1.1293768555713473e+00  1.1293296224524887e+00  1.1944163443844764e+00  1.1944640660165253e+00  1.1946230679791336e+00  1.1948934477941611e+00  1.1952869540309308e+00  0.0000000000000000e+00  9.8108872133621328e-01  9.8144242751280342e-01  9.8165081715716340e-01  9.8171563676540574e-01  9.8163992456374827e-01  9.8142387843722556e-01  9.8105195703171233e-01  0.0000000000000000e+00  1.1976429766386494e+00  1.1972094471478651e+00  1.1969062517225519e+00  1.1967297982220197e+00  1.1966744208586897e+00  1.2614921156254246e+00  1.2615433800625406e+00  1.2617195288013829e+00  1.2620199534410796e+00  1.2624558019561860e+00  0.0000000000000000e+00  9.7841333621046556e-01  9.7882186226396828e-01  9.7905905640953805e-01  9.7913188775060367e-01  9.7904292979760588e-01  9.7879147328421368e-01  9.7836395864876102e-01  0.0000000000000000e+00  1.2645805767562381e+00  1.2641153595279768e+00  1.2637940224797333e+00  1.2636074958895502e+00  1.2635501349214324e+00  1.3280977177621744e+00  1.3281465397223322e+00  1.3283200257720338e+00  1.3286167721615352e+00  1.3290452788687592e+00  0.0000000000000000e+00  9.7646488323315261e-01  9.7688080176202152e-01  9.7711851324515309e-01  9.7718954216948761e-01  9.7709567258133889e-01  9.7683517616474491e-01  9.7639849827585945e-01  0.0000000000000000e+00  1.3309003535980415e+00  1.3304553207751255e+00  1.3301519459664801e+00  1.3299762840938658e+00  1.3299232669494210e+00  1.3942373330067253e+00  1.3942780500192371e+00  1.3944295455655047e+00  1.3946896716687294e+00  1.3950623895454310e+00  0.0000000000000000e+00  9.7525634224324231e-01  9.7563206697985916e-01  9.7584172039853279e-01  9.7590118553097061e-01  9.7581099081439115e-01  9.7556845286380600e-01  9.7516993358934057e-01  0.0000000000000000e+00  1.3966315999868986e+00  1.3962560669124171e+00  1.3960043672833644e+00  1.3958589518635878e+00  1.3958158796404441e+00  1.4599645367150855e+00  1.4599938556479193e+00  1.4601095249597473e+00  1.4603099921321139e+00  1.4605900509897878e+00  0.0000000000000000e+00  9.7472039702205582e-01  9.7500923574704057e-01  9.7516456545678765e-01  9.7520420841122768e-01  9.7512825203344378e-01  9.7493274047979694e-01  9.7461777644264025e-01  0.0000000000000000e+00  1.4618731408065002e+00  1.4616054544022723e+00  1.4614323316959095e+00  1.4613318540922953e+00  1.4613025865478562e+00  1.5253731708152756e+00  1.5253885394923954e+00  1.5254565759005609e+00  1.5255799603251254e+00  1.5257467988399394e+00  0.0000000000000000e+00  9.7469638493759081e-01  9.7486579310777832e-01  9.7495926762245066e-01  9.7498000700824983e-01  9.7492230178568251e-01  9.7476451693580923e-01  9.7453347218045150e-01  0.0000000000000000e+00  1.5267722817453797e+00  1.5266461181606823e+00  1.5265630022342345e+00  1.5265137053169917e+00  1.5264992508050013e+00  1.5905872426984511e+00  1.5905905728695084e+00  1.5906149549633828e+00  1.5906547305811771e+00  1.5906585289233344e+00  0.0000000000000000e+00  9.7488720288027930e-01  9.7504979655778246e-01  9.7504849931979032e-01  9.7504568976051464e-01  9.7502168565493008e-01  9.7502443877786893e-01  9.7504610366006661e-01  0.0000000000000000e+00  1.5915921429742592e+00  1.5915481289764648e+00  1.5915486620185693e+00  1.5915438866344149e+00  1.5915414506879932e+00  1.6557339287672943e+00  1.6557294294455474e+00  1.6557192203698756e+00  1.6556825037450467e+00  1.6556318733828965e+00  0.0000000000000000e+00  9.7600862399690858e-01  9.7528620788258336e-01  9.7514782850989978e-01  9.7513811547565965e-01  9.7516130033638360e-01  9.7531050208566639e-01  9.7522325095549001e-01  0.0000000000000000e+00  1.6563559724069341e+00  1.6564816747169138e+00  1.6565301758872870e+00  1.6565481201519650e+00  1.6565511193162246e+00  1.7209000941782158e+00  1.7208954926984863e+00  1.7208802917471793e+00  1.7208539561210199e+00  1.7208337189605445e+00  0.0000000000000000e+00  0.0000000000000000e+00  0.0000000000000000e+00  0.0000000000000000e+00  0.0000000000000000e+00  0.0000000000000000e+00  0.0000000000000000e+00  0.0000000000000000e+00  0.0000000000000000e+00  1.7215928255385677e+00  1.7215894335177508e+00  1.7215859804483737e+00  1.7215932639788221e+00  1.7215952151231666e+00  1.7861121165399738e+00  1.7860965063044101e+00  1.7860899937967856e+00  1.7860778867314027e+00  1.7860496778834978e+00  0.0000000000000000e+00  0.0000000000000000e+00  0.0000000000000000e+00  0.0000000000000000e+00  0.0000000000000000e+00  0.0000000000000000e+00  0.0000000000000000e+00  0.0000000000000000e+00  0.0000000000000000e+00  1.7866891336788269e+00  1.7866620314307837e+00  1.7866605908295750e+00  1.7866621924538606e+00  1.7866579346530573e+00  1.8512987302637700e+00  1.8513331335951038e+00  1.8513354811975655e+00  1.8512918682864570e+00  1.8512832545481197e+00  0.0000000000000000e+00  0.0000000000000000e+00  0.0000000000000000e+00  0.0000000000000000e+00  0.0000000000000000e+00  0.0000000000000000e+00  0.0000000000000000e+00  0.0000000000000000e+00  0.0000000000000000e+00  1.8517009091891048e+00  1.8517278425544048e+00  1.8517278329189910e+00  1.8516853646845957e+00  1.8516794718360192e+00  1.9167028503868533e+00  1.9167072617540335e+00  1.9165679708191707e+00  1.9165822580333189e+00  1.9167051435162579e+00  0.0000000000000000e+00  0.0000000000000000e+00  0.0000000000000000e+00  0.0000000000000000e+00  0.0000000000000000e+00  0.0000000000000000e+00  0.0000000000000000e+00  0.0000000000000000e+00  0.0000000000000000e+00  1.9169106562183631e+00  1.9169073383498099e+00  1.9167684762098005e+00  1.9167813572085175e+00  1.9168999087946408e+00  1.9837553622211370e+00  1.9815742845140094e+00  1.9816261097353536e+00  1.9816475902220119e+00  1.9803173283626774e+00  0.0000000000000000e+00  0.0000000000000000e+00  0.0000000000000000e+00  0.0000000000000000e+00  0.0000000000000000e+00  0.0000000000000000e+00  0.0000000000000000e+00  0.0000000000000000e+00  0.0000000000000000e+00  1.9837092789657975e+00  1.9815766027531216e+00  1.9816275531944290e+00  1.9816470856637851e+00  1.9803436293299006e+00  </DataArray> 
</PointData> 
</Piece>
</UnstructuredGrid>
</VTKFile>