<?xml version="1.0"?>
<VTKFile type="UnstructuredGrid"  version="0.1"  >
<UnstructuredGrid>
<Piece  NumberOfPoints="589" NumberOfCells="1080">
<Points>
<DataArray  type="Float64"  NumberOfComponents="3"  format="ascii">-9 0 0  -8 0 0  -7 0 0  -6 0 0  -5 0 0  -4 0 0  -3 0 0  -2 0 0  -1 0 0  0 0 0  1 0 0  2 0 0  3 0 0  4 0 0  5 0 0  6 0 0  7 0 0  8 0 0  9 0 0  -9 2 0  -7.999996765723335 2.000004273118186 0  -6.999993284163537 2.000008037792813 0  -5.999988942203556 2.000010882627518 0  -4.999982309767629 2.000012630195801 0  -3.999989091194879 2.000009356714086 0  -2.999996027468542 2.00000635106762 0  -1.999999462340375 2.000003567044792 0  -1.00000014293744 2.000001343662534 0  9.299363929105074e-07 2.000000289751283 0  1.000002235491555 2.000000751027609 0  2.000002337298007 2.000002528160869 0  3.000000323274008 2.000004632635125 0  3.999996043882444 2.000006608276566 0  4.999990067080247 2.000006525489463 0  5.999994395934451 2.000006747108586 0  6.999996798451456 2.000005398730477 0  7.99999849462202 2.00000297465306 0  9 2 0  -9.000000000004983 4 0  -7.99999452054506 4.000010580110745 0  -6.999990009921092 4.000019755022498 0  -5.99998704629811 4.000026154362469 0  -4.999985547759244 4.000028484836246 0  -3.999995148609174 4.000026741646088 0  -3.000001575163929 4.000018385444516 0  -2.000003298741242 4.000007609264437 0  -1.000000948083107 3.999998896538536 0  3.62967083720609e-06 3.999995175065716 0  1.000008378970608 3.999997298611868 0  2.00001134675354 4.000003639271935 0  3.000010609592737 4.000012147730756 0  4.000005608198893 4.000020256698368 0  4.999997684300178 4.000021464901188 0  5.999996497222835 4.000019774238145 0  6.999996422288957 4.000015100319643 0  7.999997752399961 4.00000815167529 0  9 4 0  -9 6 0  -7.999988399877467 6.00002250836466 0  -6.999980547651782 6.000042574965039 0  -5.999979290069893 6.000057701960917 0  -4.999985408873416 6.000065535601345 0  -4.000003826592173 6.000052937219619 0  -3.000012082648495 6.000027288724429 0  -2.000008461068296 6.000000559401883 0  -1.00000001135001 5.999985862189068 0  8.302929974208145e-06 5.999982738156943 0  1.000015596329285 5.999986874212749 0  2.000021127001602 5.99999865681152 0  3.000023408021463 6.000018605652524 0  4.000019731859119 6.000038900894744 0  5.000005380244398 6.000047893227959 0  5.999994149899044 6.000044734718722 0  6.999990425848844 6.000033901163611 0  7.999993340095296 6.000018141142056 0  9 6 0  -9 8 0  -7.999967286182855 8.000044205795172 0  -6.999944706003966 8.000085155571195 0  -5.999942027920507 8.000118425133875 0  -4.999967464176913 8.000136730972468 0  -4.000003380272203 8.000079659699807 0  -2.999995459403231 8.000012944752719 0  -1.999980898730477 7.999981218413996 0  -0.999979288900428 7.999978606691122 0  1.271768019014854e-05 7.999978004610641 0  1.000006425416534 7.999974814938295 0  2.000008299104097 7.999986464209643 0  3.00002283595361 8.000006386316572 0  4.000027791946899 8.000057546685113 0  4.999995011668743 8.000115486103693 0  5.999961775875496 8.000100398092911 0  6.999957874626431 8.000072409866963 0  7.99997394386917 8.000037656543206 0  9 8 0  -9 10 0  -7.999905626956276 10.00007893605815 0  -6.999829244476386 10.00015847057422 0  -5.999792297992932 10.0002390254919 0  -4.99982454660213 10.00032062431441 0  -3.999882292576586 10.00013439096969 0  -2.99987060421413 9.999974825966561 0  -1.999892747449814 10.00000546323588 0  -0.999943201499612 10.00001536267545 0  2.054331320065636e-05 10.00001777260106 0  0.9999851475354927 10.0000172812556 0  1.999938722361703 10.00001703812459 0  2.999896947051526 9.999962597729441 0  3.999901377182026 10.00009795904571 0  4.999841864570784 10.00027710220044 0  5.999812043641506 10.00020767727601 0  6.999845429146548 10.00013798714348 0  7.999914592305232 10.00006878990047 0  9 10 0  -9 12 0  -7.999771953793616 12.00011129154852 0  -6.999555954733191 12.00022773627174 0  -5.999365624962508 12.0003555068763 0  -4.999217744792842 12.00050324695845 0  -3.999247741992534 12.00016050064501 0  -2.999218733725513 11.99982073586161 0  -1.999440964604063 11.99986565525865 0  -0.9996923815141896 11.99989204920172 0  4.412518159095378e-05 11.99990097438087 0  0.9997758686342516 11.99989203513145 0  1.999508440437356 11.9998616576481 0  2.99925254972065 11.99980058246863 0  3.999277409234075 12.00012441643076 0  4.999262014493242 12.00045057670258 0  5.999409390582946 12.00031605051146 0  6.999589826144899 12.00020161318873 0  7.99979023438198 12.00009830637268 0  9 12 0  -9 14 0  -7.999589983927279 14.0001230562203 0  -6.99917981472305 14.00025173635792 0  -5.998768857459915 14.00039216565297 0  -4.998355066969735 14.00055144928055 0  -3.998351338386132 14.00014622925482 0  -2.998346806156665 13.99973565169563 0  -1.998872641407046 13.99979998870379 0  -0.9993933582629089 13.99983864602005 0  8.675752895163123e-05 13.99985566428292 0  0.9995633927118169 13.99985257637373 0  1.999032253794137 13.99982911625037 0  2.998489578201535 13.99978390915922 0  3.99848344952412 14.00013519827488 0  4.998483531634388 14.0004838557607 0  5.998874293265176 14.00034413506788 0  6.999254213075876 14.0002207565708 0  7.999628373572121 14.00010784225798 0  9 14 0  -9 16 0  -7.999408477246108 16.00011234004483 0  -6.998806581476424 16.00022877087079 0  -5.998183028782345 16.00035345338522 0  -4.997524569725618 16.00049060492478 0  -3.99750219320615 16.00013742836557 0  -2.997521745786309 15.99978586759053 0  -1.998325165080503 15.99983715279363 0  -0.9990978437902318 15.99987188819541 0  0.0001432897466995778 15.99989085776732 0  0.9993821426825764 15.99989468227701 0  1.998602517039798 15.99988363682843 0  2.997787105843974 15.99985773057688 0  3.997762790619669 16.00014274817724 0  4.997784596718166 16.00042779933075 0  5.998382217686927 16.00030689371487 0  6.99894143088634 16.00019807313353 0  7.999476528147352 16.00009710527265 0  9 16 0  -9 18 0  -7.999268302541963 18.00008526473903 0  -6.99851969338144 18.00017281384481 0  -5.997736372519185 18.00026488895973 0  -4.996898725308386 18.00036361983264 0  -3.996864556158712 18.00013342483738 0  -2.996895696952984 17.99990331092432 0  -1.997901111099617 17.99994060648692 0  -0.9988578101198875 17.99996828549639 0  0.0002089092471837562 17.99998672134607 0  0.999274963388793 17.99999635471513 0  1.99831629697632 17.99999768237544 0  2.997307725320535 17.99999130534933 0  3.997273964619 18.00014854011551 0  4.997306758059212 18.00030499813497 0  5.998043384772034 18.00022133843265 0  6.998724872461259 18.00014399460582 0  7.999371050580953 18.00007092309253 0  9 18 0  -9 20 0  -7.999195626336984 20.00004904930814 0  -6.998371362040501 20.00009875568216 0  -5.997506548718422 20.00014970809395 0  -4.996578982860831 20.00020235214976 0  -3.996539798372599 20.0001313537484 0  -2.996576687906967 20.00006038756512 0  -1.997672432878287 20.00008259105496 0  -0.9987117042121547 20.00010172161303 0  0.0002771578941880876 20.00011785991965 0  0.9992668535286739 20.00013131196678 0  1.998230129856356 20.00014260281586 0  2.997138789463111 20.00015249562825 0  3.997101761615137 20.00015135704211 0  4.997138920405561 20.00014955915116 0  5.997924712744689 20.00011052649394 0  6.998649315965557 20.00007282990788 0  7.999334362717253 20.00003614505559 0  8.999999999966084 19.9999999999985 0  -9 22 0  -7.999202377298569 22.0000102020104 0  -6.998384941545221 22.00001971099051 0  -5.997527261302778 22.00002775822675 0  -4.996607664606493 22.00003342175738 0  -3.996569195922771 22.00013125988584 0  -2.996605904268698 22.00022907216212 0  -1.997670156834468 22.00023688826659 0  -0.9986783783488496 22.00024714889327 0  0.0003420585091931527 22.00025976499473 0  0.9993646367248157 22.00027493280416 0  1.998362901402054 22.00029312916193 0  2.997309667914224 22.00031511739231 0  3.997274779084894 22.00015206499326 0  4.997310755947923 21.99998844481696 0  5.998050413484356 21.99999437046714 0  6.998731760361311 21.99999761733027 0  7.999375208558057 21.99999920473753 0  9 22 0  -9 24 0  -7.999288246022678 23.99997412553784 0  -6.998559214159663 23.99994651056479 0  -5.99779516783188 23.99991533808192 0  -4.996977437631662 23.99987863834561 0  -3.996944172766939 24.00013257788166 0  -2.996976138628416 24.00038639676922 0  -1.997892485875591 24.00038138790599 0  -0.9987599098701549 24.00038313509685 0  0.0003984004214335952 24.00039144303356 0  0.9995599113641291 24.00040641688863 0  1.998702159688868 24.00042846142655 0  2.997802168387686 24.00045828357404 0  3.997773588353756 24.00015092296065 0  4.997803930044769 23.99984304095239 0  5.998408983355788 23.9998889314934 0  6.998965578105767 23.99992904395825 0  7.999490580632881 23.99996543332498 0  9 24 0  -9 26 0  -7.99944307583215 25.9999450122455 0  -6.998873253756834 25.99988753980591 0  -5.998277333970059 25.9998250219546 0  -4.997641491784613 25.99975474761485 0  -3.99761676483595 26.00013479570481 0  -2.997640533776458 26.00051465190013 0  -1.998310961285704 26.00049882025947 0  -0.998944583254214 26.00049283486307 0  0.0004419607669747351 26.00049641239357 0  0.9998324842608884 26.00050957091306 0  1.999210876895426 26.00053263251842 0  2.998560725312015 26.00056622284876 0  3.998541481275284 26.00014829042825 0  4.998562965602392 25.99972991053535 0  5.99896100251158 25.99980661144543 0  6.999325529523191 25.99987536866136 0  7.999668170057548 25.99993895720009 0  9 26 0  -9 28 0  -7.999649330569762 27.9999258393068 0  -6.999291377476245 27.99984874925307 0  -5.998918710430696 27.99976572561887 0  -4.998523575476232 27.99967361569103 0  -3.9985095602967 28.00013749351879 0  -2.998522777075683 28.00060112362744 0  -1.998877099260845 28.00057682395186 0  -0.9992101144102284 28.00056424116507 0  0.0004696264636560339 28.00056300944807 0  1.00015382600258 28.00057306310232 0  1.999834264932787 28.00059463635953 0  2.999502625223121 28.00062826360758 0  3.999494633764207 28.00014460353473 0  4.999505206660462 27.99966057984645 0  5.999646649524069 27.99975607660434 0  6.999772764662903 27.999842376
[...]
<PointData  Scalars="f_44-1"> 
<DataArray  type="Float64"  Name="f_44-1"  format="ascii">-1.1086321602480967e-03  -1.2008518093807519e-04  -4.2702152468720638e-05  -1.3919579667611237e-04  1.5446179661598620e-03  0.0000000000000000e+00  0.0000000000000000e+00  0.0000000000000000e+00  0.0000000000000000e+00  0.0000000000000000e+00  0.0000000000000000e+00  0.0000000000000000e+00  0.0000000000000000e+00  0.0000000000000000e+00  -1.1379399560931982e-03  -9.0795514143793282e-05  -1.5345466680725920e-05  -1.2945419003470153e-04  1.5858541205273267e-03  -3.8140954371423418e-02  -3.8164514773405413e-02  -3.8103121080212535e-02  -3.7976126778363033e-02  -3.7831661190275749e-02  0.0000000000000000e+00  0.0000000000000000e+00  0.0000000000000000e+00  0.0000000000000000e+00  0.0000000000000000e+00  0.0000000000000000e+00  0.0000000000000000e+00  0.0000000000000000e+00  0.0000000000000000e+00  -3.8790754013156216e-02  -3.8835575933423135e-02  -3.8784574564570337e-02  -3.8635215810069914e-02  -3.8471464129563440e-02  -7.6270938247840814e-02  -7.6282352786250493e-02  -7.6280045200388114e-02  -7.6261082003144035e-02  -7.6248814331863049e-02  0.0000000000000000e+00  0.0000000000000000e+00  0.0000000000000000e+00  0.0000000000000000e+00  0.0000000000000000e+00  0.0000000000000000e+00  0.0000000000000000e+00  0.0000000000000000e+00  0.0000000000000000e+00  -7.7555550722206060e-02  -7.7533354549210148e-02  -7.7502136197197771e-02  -7.7491020544380007e-02  -7.7501647038088040e-02  -1.1439009576108619e-01  -1.1437323269503483e-01  -1.1433603770298277e-01  -1.1429383280462765e-01  -1.1425245905618828e-01  0.0000000000000000e+00  0.0000000000000000e+00  0.0000000000000000e+00  0.0000000000000000e+00  0.0000000000000000e+00  0.0000000000000000e+00  0.0000000000000000e+00  0.0000000000000000e+00  0.0000000000000000e+00  -1.1628698278675119e-01  -1.1626485336042944e-01  -1.1625924171822703e-01  -1.1625653388892077e-01  -1.1625849672616671e-01  -1.5258172504683423e-01  -1.5257680969788168e-01  -1.5257343263567077e-01  -1.5255570835913759e-01  -1.5254285679825866e-01  0.0000000000000000e+00  0.0000000000000000e+00  0.0000000000000000e+00  0.0000000000000000e+00  0.0000000000000000e+00  0.0000000000000000e+00  0.0000000000000000e+00  0.0000000000000000e+00  0.0000000000000000e+00  -1.5506323813578982e-01  -1.5502689330605735e-01  -1.5499984556626070e-01  -1.5499089224440279e-01  -1.5498345994306953e-01  -1.9079894381498674e-01  -1.9079577947921730e-01  -1.9079890713492006e-01  -1.9080941884521466e-01  -1.9092173972141754e-01  0.0000000000000000e+00  -5.5724871176130264e-01  -5.5723384380721985e-01  -5.5754063465668091e-01  -5.5764630074636601e-01  -5.5754239771026348e-01  -5.5717877450873532e-01  -5.5634992769805913e-01  0.0000000000000000e+00  -1.9372599864713852e-01  -1.9367585853177330e-01  -1.9368063473163874e-01  -1.9369447990081501e-01  -1.9369123049427975e-01  -2.2901717002256197e-01  -2.2900371708755293e-01  -2.2897311546190052e-01  -2.2891711131193546e-01  -2.2888597761939625e-01  0.0000000000000000e+00  -5.5761078147408338e-01  -5.5787884675229027e-01  -5.5802142243477870e-01  -5.5802798674971565e-01  -5.5795233646934150e-01  -5.5781332425238195e-01  -5.5772787287582037e-01  0.0000000000000000e+00  -2.3223144411031524e-01  -2.3224695346817231e-01  -2.3235435851895539e-01  -2.3241839673391895e-01  -2.3243157035698842e-01  -2.6728083082208126e-01  -2.6725553558780507e-01  -2.6719812604178622e-01  -2.6710641486799225e-01  -2.6706731989094984e-01  0.0000000000000000e+00  -5.5881691603926820e-01  -5.5884182241936786e-01  -5.5883883864302752e-01  -5.5881786349118567e-01  -5.5875646749272045e-01  -5.5864475027781579e-01  -5.5850344948116148e-01  0.0000000000000000e+00  -2.7093047019858552e-01  -2.7102460244546872e-01  -2.7116765472919213e-01  -2.7125068006749209e-01  -2.7128018215631178e-01  -3.0561695439574443e-01  -3.0558461870435211e-01  -3.0552499548321249e-01  -3.0544345475482254e-01  -3.0541376598019093e-01  0.0000000000000000e+00  -5.5973059800231129e-01  -5.5981119938421886e-01  -5.5983973660968234e-01  -5.5981996952591373e-01  -5.5975139090482073e-01  -5.5963177748279069e-01  -5.5946392676888768e-01  0.0000000000000000e+00  -3.0998697290673055e-01  -3.1004157688780848e-01  -3.1015495973516605e-01  -3.1022684919647792e-01  -3.1025901025402047e-01  -3.4399691856137510e-01  -3.4396426203440955e-01  -3.4392690826031880e-01  -3.4389637273023471e-01  -3.4391791363835184e-01  0.0000000000000000e+00  -5.6089298214865124e-01  -5.6098715760583262e-01  -5.6102702410772209e-01  -5.6101363372558588e-01  -5.6094749170446812e-01  -5.6082609993074384e-01  -5.6065641784838705e-01  0.0000000000000000e+00  -3.4926428851375346e-01  -3.4922769681882232e-01  -3.4925921050294073e-01  -3.4928839493791330e-01  -3.4931758104606392e-01  -3.8234175623683875e-01  -3.8231464005861671e-01  -3.8231488186547752e-01  -3.8235688869089779e-01  -3.8244555487883775e-01  0.0000000000000000e+00  -5.6228273444891552e-01  -5.6238800166881875e-01  -5.6243642080119094e-01  -5.6242752767612125e-01  -5.6236446160115205e-01  -5.6224516713451156e-01  -5.6207020392794493e-01  0.0000000000000000e+00  -3.8853983626562161e-01  -3.8840543156888785e-01  -3.8833856845249776e-01  -3.8831342973433758e-01  -3.8833536148045300e-01  -4.2054711434165798e-01  -4.2052967872100638e-01  -4.2057273100869930e-01  -4.2069036490872219e-01  -4.2084268992603285e-01  0.0000000000000000e+00  -5.6392474710306584e-01  -5.6402626192676997e-01  -5.6407464649006323e-01  -5.6406827766679646e-01  -5.6401029887334875e-01  -5.6389898026119889e-01  -5.6373165407544712e-01  0.0000000000000000e+00  -4.2762234439032948e-01  -4.2739714475394952e-01  -4.2723248774226091e-01  -4.2715234288580828e-01  -4.2716317920924940e-01  -4.5850978717840912e-01  -4.5850434620312303e-01  -4.5858711018148202e-01  -4.5876944865572639e-01  -4.5896939217184896e-01  0.0000000000000000e+00  -5.6581273658305420e-01  -5.6589458695369454e-01  -5.6593260363651154e-01  -5.6592447414963998e-01  -5.6587299223978738e-01  -5.6577737452389021e-01  -5.6563206969699120e-01  0.0000000000000000e+00  -4.6633282511215907e-01  -4.6603785739185882e-01  -4.6579028645044973e-01  -4.6566213641362603e-01  -4.6565945274135828e-01  -4.9614863761075045e-01  -4.9615570171085904e-01  -4.9626887495511773e-01  -4.9649518155121369e-01  -4.9671878258119267e-01  0.0000000000000000e+00  -5.6790633809310287e-01  -5.6795454496533682e-01  -5.6797324879183697e-01  -5.6795994492493496e-01  -5.6791660811871836e-01  -5.6784349421840541e-01  -5.6773282001341774e-01  0.0000000000000000e+00  -5.0453311504060216e-01  -5.0419785849482535e-01  -5.0389241395468098e-01  -5.0372910447742059e-01  -5.0371246650061285e-01  -5.3341855524674742e-01  -5.3343716188089096e-01  -5.3356739973625822e-01  -5.3381106137143053e-01  -5.3403064342868134e-01  0.0000000000000000e+00  -5.7014088850652234e-01  -5.7014575265272149e-01  -5.7013896080542004e-01  -5.7011801146061558e-01  -5.7008382797136103e-01  -5.7003774514867911e-01  -5.6997066137243413e-01  0.0000000000000000e+00  -5.4213994169893853e-01  -5.4179790519139515e-01  -5.4146574521802704e-01  -5.4128388372625991e-01  -5.4125469287426309e-01  -5.7031885289344242e-01  -5.7034645319747912e-01  -5.7047824716385076e-01  -5.7071042030345509e-01  -5.7089845547705487e-01  0.0000000000000000e+00  -5.7243646682353078e-01  -5.7239377059191543e-01  -5.7235870901473107e-01  -5.7232881442130179e-01  -5.7230393004515301e-01  -5.7228637005787086e-01  -5.7226668338917963e-01  0.0000000000000000e+00  -5.7913216138744272e-01  -5.7881702974005900e-01  -5.7849169269619050e-01  -5.7830961714994711e-01  -5.7827073188356126e-01  -6.0689280973269655e-01  -6.0692640612827675e-01  -6.0704423888086445e-01  -6.0723753506189915e-01  -6.0737014682794432e-01  0.0000000000000000e+00  -5.7470919750214633e-01  -5.7462043731432577e-01  -5.7455778396239088e-01  -5.7451878926559419e-01  -5.7450232957491787e-01  -5.7451149470874363e-01  -5.7453745061372818e-01  0.0000000000000000e+00  -6.1555208162261532e-01  -6.1529401384494731e-01  -6.1500782448133651e-01  -6.1484371575352725e-01  -6.1479901525525715e-01  -6.4322699066672007e-01  -6.4326166416673025e-01  -6.4335161258484286e-01  -6.4348333072681796e-01  -6.4354297349656364e-01  0.0000000000000000e+00  -5.7688180929065702e-01  -5.7675361404301928e-01  -5.7666702269754089e-01  -5.7661970252004935e-01  -5.7660976969358790e-01  -5.7664082817618223e-01  -5.7670550928337116e-01  0.0000000000000000e+00  -6.5149947079138426e-01  -6.5132237454396846e-01  -6.5110364508189711e-01  -6.5097357490714536e-01  -6.5092748073171913e-01  -6.7943407620091167e-01  -6.7946862166238087e-01  -6.7952075093843167e-01  -6.7957345116633594e-01  -6.7955006702823040e-01  0.0000000000000000e+00  -5.7889196263551224e-01  -5.7873486974825372e-01  -5.7863009991650527e-01  -5.7857582656467943e-01  -5.7856965473366706e-01  -5.7861539610669888e-01  -5.7870771038310131e-01  0.0000000000000000e+00  -6.8712072200115204e-01  -6.8704117353277194e-01  -6.8691030910150552e-01  -6.8682676991896796e-01  -6.8678385587705648e-01  -7.1565549758728642e-01  -7.1567989992829839e-01  -7.1568392047974072e-01  -7.1565253125609030e-01  -7.1554929150416524e-01  0.0000000000000000e+00  -5.8069763411702180e-01  -5.8052423705381939e-01  -5.8040810601243420e-01  -5.8034852715156982e-01  -5.8034277296801595e-01  -5.8039447701455982e-01  -5.8050072270731323e-01  0.0000000000000000e+00  -7.2259931214338369e-01  -7.2261673354514033e-01  -7.2258644865547639e-01  -7.2255769998505825e-01  -7.2252216131093838e-01  -7.5200980851327504e-01  -7.5203016342731988e-01  -7.5199633337786265e-01  -7.5188698634359985e-01  -7.5171003414581650e-01  0.0000000000000000e+00  -5.8227894132655367e-01  -5.8210216663694325e-01  -5.8198135681684948e-01  -5.8191765763497350e-01  -5.8190848125566663e-01  -5.8195707231331817e-01  -5.8206291769580820e-01  0.0000000000000000e+00  -7.5810066830399281e-01  -7.5823018845107815e-01  -7.5830362402236196e-01  -7.5833030677715163e-01  -7.5830532057609223e-01  -7.8864250962993987e-01  -7.8865433059305867e-01  -7.8857037615428582e-01  -7.8837774815546413e-01  -7.8814152285547323e-01  0.0000000000000000e+00  -5.8363762422589405e-01  -5.8346825555927784e-01  -5.8334713748319345e-01  -5.8328082715410801e-01  -5.8326664386576976e-01  -5.8330516436201474e-01  -5.8339797983814201e-01  0.0000000000000000e+00  -7.9388203972571869e-01  -7.9406313451699539e-01  -7.9422081024541147e-01  -7.9430076855965426e-01  -7.9428889248823809e-01  -8.2563012826191284e-01  -8.2561047751540728e-01  -8.2549501498238664e-01  -8.2528421300715404e-01  -8.2504522155687843e-01  0.0000000000000000e+00  -5.8479988835942631e-01  -5.8463298759361437e-01  -5.8451405888639973e-01  -5.8444550154978758e-01  -5.8442501739048824e-01  -5.8445222811723374e-01  -5.8453121389097284e-01  0.0000000000000000e+00  -8.2993704267761548e-01  -8.3022822055311951e-01  -8.3047915206611911e-01  -8.3060174948801602e-01  -8.3060307670746947e-01  -8.6295872240448035e-01  -8.6298150335601953e-01  -8.6287419201266935e-01  -8.6263318757227136e-01  -8.6235419058549112e-01  0.0000000000000000e+00  -5.8574815632072796e-01  -5.8560738114934208e-01  -5.8549591577283944e-01  -5.8543427758194266e-01  -5.8541278945957720e-01  -5.8540935794001792e-01  -5.8543333102280737e-01  0.0000000000000000e+00  -8.6661894453919830e-01  -8.6691402435517828e-01  -8.6718219171339339e-01  -8.6733383443189693e-01  -8.6734962550045425e-01  -9.0092788383265154e-01  -9.0085454117035180e-01  -9.0067469958762225e-01  -9.0038193840097502e-01  -9.0006343642159103e-01  0.0000000000000000e+00  -5.8652135182817555e-01  -5.8643405748535560e-01  -5.8629524442675418e-01  -5.8621941292110868e-01  -5.8622561675209683e-01  -5.8636688630063716e-01  -5.8663319907356060e-01  0.0000000000000000e+00  -9.0386752386856140e-01  -9.0411677647713384e-01  -9.0439536404950294e-01  -9.0452404083935134e-01  -9.0453424306387020e-01  -9.3879862367488465e-01  -9.3883539746236644e-01  -9.3877038547152303e-01  -9.3864848804687784e-01  -9.3846016627638895e-01  0.0000000000000000e+00  -5.8788631823065163e-01  -5.8706675983931844e-01  -5.8670507334246502e-01  -5.8660074355036140e-01  -5.8670558654610849e-01  -5.8700904793080610e-01  -5.8699374678818483e-01  0.0000000000000000e+00  -9.4132054081243155e-01  -9.4170300561093767e-01  -9.4195821136460822e-01  -9.4213163660784027e-01  -9.4218233398572160e-01  -9.7778144858262317e-01  -9.7773105790578085e-01  -9.7762772619688365e-01  -9.7742669269955451e-01  -9.7729199935980871e-01  0.0000000000000000e+00  0.0000000000000000e+00  0.0000000000000000e+00  0.0000000000000000e+00  0.0000000000000000e+00  0.0000000000000000e+00  0.0000000000000000e+00  0.0000000000000000e+00  0.0000000000000000e+00  -9.8028301046690480e-01  -9.8026683037054296e-01  -9.8027737252686742e-01  -9.8021632974047157e-01  -9.8018059890014830e-01  -1.0158649718483501e+00  -1.0158394552278673e+00  -1.0158183930896798e+00  -1.0158975122117810e+00  -1.0158660067462502e+00  0.0000000000000000e+00  0.0000000000000000e+00  0.0000000000000000e+00  0.0000000000000000e+00  0.0000000000000000e+00  0.0000000000000000e+00  0.0000000000000000e+00  0.0000000000000000e+00  0.0000000000000000e+00  -1.0178953590878714e+00  -1.0178644316049870e+00  -1.0178774855470987e+00  -1.0180013192516828e+00  -1.0180203924875149e+00  -1.0552329101064215e+00  -1.0553023694281962e+00  -1.0552911110865288e+00  -1.0550652817151578e+00  -1.0550859385866220e+00  0.0000000000000000e+00  0.0000000000000000e+00  0.0000000000000000e+00  0.0000000000000000e+00  0.0000000000000000e+00  0.0000000000000000e+00  0.0000000000000000e+00  0.0000000000000000e+00  0.0000000000000000e+00  -1.0566542950457722e+00  -1.0566997508311538e+00  -1.0566818276529530e+00  -1.0564586817824859e+00  -1.0564849337097737e+00  -1.0942678735191560e+00  -1.0938426298549029e+00  -1.0933753506101822e+00  -1.0932944290809055e+00  -1.0931913347731836e+00  0.0000000000000000e+00  0.0000000000000000e+00  0.0000000000000000e+00  0.0000000000000000e+00  0.0000000000000000e+00  0.0000000000000000e+00  0.0000000000000000e+00  0.0000000000000000e+00  0.0000000000000000e+00  -1.0949588924925513e+00  -1.0945319546613959e+00  -1.0940735661572902e+00  -1.0939973719615081e+00  -1.0938974428991388e+00  -1.1337637064528934e+00  -1.1316317810094452e+00  -1.1322113415109762e+00  -1.1321801045142419e+00  -1.1306427506859644e+00  0.0000000000000000e+00  0.0000000000000000e+00  0.0000000000000000e+00  0.0000000000000000e+00  0.0000000000000000e+00  0.0000000000000000e+00  0.0000000000000000e+00  0.0000000000000000e+00  0.0000000000000000e+00  -1.1336820717209604e+00  -1.1316397770658606e+00  -1.1322145489508046e+00  -1.1321809556435509e+00  -1.1306853265943593e+00  </DataArray> 
</PointData> 
</Piece>
</UnstructuredGrid>
</VTKFile>