<?xml version="1.0"?>
<VTKFile type="UnstructuredGrid"  version="0.1"  >
<UnstructuredGrid>
<Piece  NumberOfPoints="589" NumberOfCells="1080">
<Points>
<DataArray  type="Float64"  NumberOfComponents="3"  format="ascii">-9 0 0  -8 0 0  -7 0 0  -6 0 0  -5 0 0  -4 0 0  -3 0 0  -2 0 0  -1 0 0  0 0 0  1 0 0  2 0 0  3 0 0  4 0 0  5 0 0  6 0 0  7 0 0  8 0 0  9 0 0  -9 2 0  -8.00000821401839 1.99998778706323 0  -7.00001724564255 1.999977058826103 0  -6.000028990154028 1.99996901832725 0  -5.000047757293155 1.999964185111659 0  -4.000028523422812 1.999973291724041 0  -3.000008681833716 1.99998181981396 0  -1.999998916029932 1.999989775428056 0  -0.9999971020981856 1.999996058316151 0  -2.508622871828574e-07 1.999998810728882 0  0.9999962477044247 1.999996902624573 0  1.999996870129627 1.999990790686102 0  3.000004632792179 1.999983282427544 0  4.000020487273313 1.999975220152545 0  5.000043408302413 1.999971858002487 0  6.000026226032606 1.999973126439383 0  7.000015598786059 1.999979308962286 0  8.000007445645965 1.999988809838505 0  9 2 0  -9 4 0  -8.000013157411606 3.999969636175631 0  -7.000023639769463 3.999943367332147 0  -6.000029889686487 3.999925207864483 0  -5.000032243957846 3.999918993118282 0  -4.000004349719304 3.999923169966093 0  -2.999985530733663 3.999947016536368 0  -1.999980393388679 3.9999780637011 0  -0.999987129796412 4.000003024962774 0  -3.385731187812363e-07 4.000013084867295 0  0.9999861672254693 4.000005222166592 0  1.999978473004654 3.999983977451107 0  2.999982666329512 3.999955205802262 0  4.000000588580724 3.999926258939567 0  5.000027755867821 3.999916501002631 0  6.000026231744116 3.999926597102159 0  7.000021300900178 3.999945345432447 0  8.000012060945558 3.999970863490429 0  9 4 0  -9 6 0  -8.000028799975697 5.999935109487931 0  -7.000046963595786 5.999877242141771 0  -6.000046371841981 5.999833622166377 0  -5.000024689781542 5.999811186096791 0  -3.999970464085482 5.999846451120949 0  -2.99994565375208 5.999920171126447 0  -1.999955043388984 5.999997450920364 0  -0.9999789113144314 6.000040437322901 0  -3.081248373684636e-06 6.000049084079007 0  0.9999752215091783 6.000035130729721 0  1.99995877592288 5.999996555615423 0  2.999952809628076 5.999931402598422 0  3.999965874274555 5.999863834593987 0  5.000012231971381 5.999830358616122 0  6.000039864315776 5.999845462371218 0  7.000044238347 5.999884307064923 0  8.000027958559139 5.999938447219619 0  9 6 0  -9 8 0  -8.000086976013151 7.999872509075796 0  -7.000145301767507 7.999754147838668 0  -6.000147211104645 7.999657320947455 0  -5.00006889779589 7.9996024869937 0  -3.999964328413574 7.999765298116698 0  -2.999983231386767 7.999956593503582 0  -2.000022092879579 8.000049883744929 0  -1.000025146059686 8.000060628905748 0  -1.57836014700767e-06 8.000063770509009 0  1.000016114798318 8.00007312199396 0  2.000009140903052 8.000034095934001 0  2.999963982082432 7.999967591555241 0  3.999948975576545 7.999803093011428 0  5.000051947968681 7.999617493229784 0  6.000146515687575 7.999669391964614 0  7.000149774405311 7.99976210836823 0  8.000090556918842 7.999876396746168 0  9 8 0  -9 10 0  -8.000259657895919 9.99977346669082 0  -7.000469203638938 9.99954503494142 0  -6.000568843451139 9.999313243938747 0  -5.000475243569397 9.999077678783012 0  -4.000309784326737 9.999602691318668 0  -3.000336229398802 10.00005414683388 0  -2.000268474110402 9.999976750183086 0  -1.000122721904763 9.999951908436339 0  -1.519240470346763e-05 9.999945843188893 0  1.000091513409016 9.999946276472848 0  2.00023346412465 9.99994332264807 0  3.000358694405611 10.00010565290577 0  4.000343455919348 9.999676364879422 0  5.000531793131833 9.999110009755958 0  6.000618198429683 9.999330208949171 0  7.000505086100704 9.999553710212611 0  8.000278428366773 9.999777142906849 0  9 10 0  -9 12 0  -8.000632348218558 11.99968218158143 0  -7.001232010701099 11.99934963476834 0  -6.001762045670191 11.99898474322538 0  -5.002176604174031 11.99856294307519 0  -4.002092427225374 11.99951905150866 0  -3.002168500951365 12.00046555669617 0  -2.001486039464782 12.00035120125412 0  -1.000728109874685 12.00028946643981 0  5.823814871412412e-05 12.00027768805906 0  1.000852152736972 12.0003178535202 0  2.001636038755946 12.00042155993349 0  3.002374756832459 12.00061782880108 0  4.00229329016119 11.99958853588775 0  5.002347374965483 11.99855069046207 0  6.001886945299863 11.99897818137636 0  7.001314075345173 11.99934580991385 0  8.000673073540881 11.99968033011456 0  9 12 0  -9 14 0  -8.00113487439936 13.99964999454066 0  -7.002271875973474 13.99928393279388 0  -6.003414670461924 13.99888434315746 0  -5.004570828471249 13.99843097847058 0  -4.004583221070785 13.99954689074411 0  -3.004589707146797 14.00067693743688 0  -2.003007190509842 14.00051551153362 0  -1.001447917820526 14.00042750037385 0  0.0001016258002647723 14.00040203637028 0  1.001654251858014 14.00043560881204 0  2.003221831976945 14.00053004129785 0  3.004813756618832 14.00069046500888 0  4.004826199274157 13.99954756533427 0  5.004833077767537 13.9984117432892 0  6.003603242332834 13.99886632711824 0  7.00239429648985 13.99927077587316 0  8.001195197532837 13.99964315573902 0  9 14 0  -9 16 0  -8.001627656086452 15.99968215504261 0  -7.003286534035112 15.99935260168407 0  -6.005010564394653 15.9989994333258 0  -5.006839189900546 15.99861053347827 0  -4.006904671748017 15.99956055627347 0  -3.006842877393668 16.0005055014383 0  -2.004438573333038 16.00038715935753 0  -1.002130209758789 16.00031614876478 0  0.000132748195583872 16.00029096474628 0  1.002398044257877 16.00031063894409 0  2.004713422858959 16.00037527212696 0  3.007129681482344 16.00048579123594 0  4.007198840374124 15.99951738666923 0  5.007138298166244 15.99854823760488 0  6.005232246318449 15.99895550507522 0  7.003432865746317 15.99932436190398 0  8.001700363859447 15.99966830527212 0  9 16 0  -9 18 0  -8.001994250811073 17.99976118068905 0  -7.00403824860265 17.99951585866025 0  -6.006184328167296 17.99925765621506 0  -5.008489963425903 17.99898046879524 0  -4.008588460400183 17.99956338448634 0  -3.008493520799101 18.00014552932894 0  -2.005490295828563 18.00007029753796 0  -1.002632795784325 18.00002233816221 0  0.0001544550204942338 18.00000129843653 0  1.002943268691219 18.00000665299341 0  2.005805354723294 18.00003774424459 0  3.0088158366917 18.00009363950748 0  4.008916294291966 17.99949495589184 0  5.008820604985645 17.99889802324563 0  6.006430303668156 17.99919864030028 0  7.004201242386245 17.9994777954323 0  8.002075446871368 17.99974251994159 0  9 18 0  -9 20 0  -8.002160653722248 19.99986619643898 0  -7.004379252455124 19.99973066786586 0  -6.006715947902318 19.99959188854871 0  -5.009235301749714 19.99944872203294 0  -4.009347458023569 19.99956315112905 0  -3.009236683002235 19.99967670758015 0  -2.005963746357077 19.99964494405712 0  -1.002856578422711 19.99962146792592 0  0.0001698290179803438 19.99960667230517 0  1.003197411699758 19.9996003172546 0  2.006308071252799 19.99960155225721 0  3.009586725990109 19.9996088622984 0  4.009699784402198 19.99948386496843 0  5.009588226229878 19.99936003873509 0  6.006979023183699 19.9995277104315 0  7.004553858822883 19.99968899266829 0  8.002247722795955 19.99984569160957 0  8.999999999991696 19.9999999999934 0  -9 22 0  -8.002094164123955 21.99997808885003 0  -7.004245500603368 21.99995847419469 0  -6.006512968074363 21.99994367342213 0  -5.008959077241903 21.99993664994912 0  -4.009068747813044 21.99955851045036 0  -3.008960018887821 21.99917937557829 0  -2.005778809797346 21.99918663703132 0  -1.002759525361013 21.99918609128461 0  0.00018050346293428 21.99917849999979 0  1.003121453417967 21.99916382066113 0  2.006143486545624 21.99914122200757 0  3.00932923073032 21.99910906955408 0  4.00943785567974 21.99948034621335 0  5.009326635536291 21.99985224508368 0  6.006787384519048 21.99988232143915 0  7.004427836508764 21.99991849714384 0  8.002185143906022 21.9999583776708 0  9 22 0  -9 24 0  -8.0017978412143 24.00008079598096 0  -7.003644803726726 24.0001670236823 0  -6.005591393944488 24.00026433962616 0  -5.007690759852411 24.00037886504017 0  -4.007785270651281 23.99954964659126 0  -3.007692568404901 23.9987195090774 0  -2.004950724843197 23.99875937363442 0  -1.002347547602827 23.99877872253915 0  0.0001876064147797976 23.99877850421506 0  1.002723497999523 23.99875881269579 0  2.005328882202709 23.99871889153181 0  3.008074387382697 23.99865712836049 0  4.008165066705031 23.99948231743552 0  5.008067440997339 24.00030781503414 0  6.005872910298779 24.00021250336715 0  7.003831997645261 24.00013315767327 0  8.001891283025381 24.00006407088582 0  9 24 0  -9 26 0  -8.001303719589142 26.00016179966898 0  -7.002643043333207 26.00033123464473 0  -6.004054550653709 26.00051616632608 0  -5.005576562779456 26.00072492462594 0  -4.005646282691921 25.99953709578095 0  -3.005580088329467 25.99834853756166 0  -2.00357235747934 25.99841375888355 0  -1.001665463550829 25.99844920993556 0  0.0001919475853992295 25.99845598340266 0  1.002049954602592 25.99843429427468 0  2.003958631619422 25.99838348069899 0  3.005969321001965 25.99830200203882 0  4.00603211192763 25.99948788574399 0  5.005958145267319 26.00067385507128 0  6.004339973374732 26.0004788168892 0  7.002832948556442 26.00030678896673 0  8.001398550323149 26.00014971277016 0  9 26 0  -9 28 0  -8.000665667456142 28.00021228910587 0  -7.001349787861507 28.00043347517701 0  -6.002071371470382 28.00067268353794 0  -5.002850258709701 28.00093950390104 0  -4.002888599417093 27.99952200807118 0  -3.002855751004105 27.99810411012864 0  -2.001794937589497 27.99818679135797 0  -1.000787393659681 27.99823396774893 0  0.0001940963136361501 27.99824686470344 0  1.001176076431249 27.99822581431431 0  2.002185083120803 27.99817025548961 0  3.003248309610762 27.99807873296628 0  4.003276914537865 27.99949576670402 0  5.003233656839575 28.00091280416468 0  6.002358342532976 28.00065311534258 0  7.001540815997081 28.00042064649069 0  8.0007610896992
[...]
<PointData  Scalars="f_44-1"> 
<DataArray  type="Float64"  Name="f_44-1"  format="ascii">1.6130038161785744e-03  4.6543016760982845e-05  5.4761922520441216e-05  1.5467819230791151e-04  -1.7756629824861696e-03  0.0000000000000000e+00  0.0000000000000000e+00  0.0000000000000000e+00  0.0000000000000000e+00  0.0000000000000000e+00  0.0000000000000000e+00  0.0000000000000000e+00  0.0000000000000000e+00  0.0000000000000000e+00  1.6254974473516946e-03  4.6384152519781976e-05  5.5545219617549384e-05  1.4947661313683026e-04  -1.7995764950470398e-03  9.5155755159212083e-02  9.5192116493968845e-02  9.5066612846377838e-02  9.4785287012755029e-02  9.4652594966389045e-02  0.0000000000000000e+00  0.0000000000000000e+00  0.0000000000000000e+00  0.0000000000000000e+00  0.0000000000000000e+00  0.0000000000000000e+00  0.0000000000000000e+00  0.0000000000000000e+00  0.0000000000000000e+00  9.5240029002904611e-02  9.5273463497681232e-02  9.5143488037797194e-02  9.4859273238861383e-02  9.4723354453283462e-02  1.9004823491705630e-01  1.9003530470817520e-01  1.8999062432045563e-01  1.8995956988937876e-01  1.8997775282303420e-01  0.0000000000000000e+00  0.0000000000000000e+00  0.0000000000000000e+00  0.0000000000000000e+00  0.0000000000000000e+00  0.0000000000000000e+00  0.0000000000000000e+00  0.0000000000000000e+00  0.0000000000000000e+00  1.9018276136766588e-01  1.9018399380567141e-01  1.9015180857058187e-01  1.9012668515708656e-01  1.9014805003419730e-01  2.8504044512942600e-01  2.8503564672905973e-01  2.8503174844705442e-01  2.8502918208050915e-01  2.8501282786015625e-01  0.0000000000000000e+00  0.0000000000000000e+00  0.0000000000000000e+00  0.0000000000000000e+00  0.0000000000000000e+00  0.0000000000000000e+00  0.0000000000000000e+00  0.0000000000000000e+00  0.0000000000000000e+00  2.8526245400046618e-01  2.8525602159649771e-01  2.8525896333223399e-01  2.8526407723375447e-01  2.8526804554720397e-01  3.8008444056365659e-01  3.8006986632988626e-01  3.8003237784368210e-01  3.7994510841006202e-01  3.7988403095115997e-01  0.0000000000000000e+00  0.0000000000000000e+00  0.0000000000000000e+00  0.0000000000000000e+00  0.0000000000000000e+00  0.0000000000000000e+00  0.0000000000000000e+00  0.0000000000000000e+00  0.0000000000000000e+00  3.8031073373945923e-01  3.8035578897935568e-01  3.8037020344582673e-01  3.8038280508762007e-01  3.8039152061302406e-01  4.7519304772194393e-01  4.7517623714344726e-01  4.7515123760789324e-01  4.7514659574317547e-01  4.7517016242776494e-01  0.0000000000000000e+00  1.4445317153797079e+00  1.4444318088447783e+00  1.4445617373565485e+00  1.4445587733162804e+00  1.4445735033996583e+00  1.4444897042791511e+00  1.4436746985056432e+00  0.0000000000000000e+00  4.7546905447083465e-01  4.7547650042408240e-01  4.7548839532110604e-01  4.7551301418774983e-01  4.7552791326385146e-01  5.7034503443521378e-01  5.7032074334232552e-01  5.7027443631953290e-01  5.7021327701730029e-01  5.7007676519470152e-01  0.0000000000000000e+00  1.4445539426821810e+00  1.4445757968481601e+00  1.4445860218610642e+00  1.4445682167607119e+00  1.4445727817622842e+00  1.4445597893490696e+00  1.4447410874672739e+00  0.0000000000000000e+00  5.7044835264948157e-01  5.7053369937107556e-01  5.7062811259217538e-01  5.7067995501328816e-01  5.7070353021296327e-01  6.6559063244963945e-01  6.6556014114395345e-01  6.6548813526515593e-01  6.6537605210933437e-01  6.6519984778723973e-01  0.0000000000000000e+00  1.4448310546815983e+00  1.4446932951707079e+00  1.4445899201142403e+00  1.4445564331088918e+00  1.4445685938950956e+00  1.4446234710789296e+00  1.4447108113826437e+00  0.0000000000000000e+00  6.6554167946800402e-01  6.6573639609901936e-01  6.6587299812315515e-01  6.6595706923239728e-01  6.6598938788427697e-01  7.6100394902327684e-01  7.6097053065850340e-01  7.6087833053406195e-01  7.6072677797314747e-01  7.6049494133373596e-01  0.0000000000000000e+00  1.4446887159599688e+00  1.4445204669924003e+00  1.4444160783010598e+00  1.4443764999147404e+00  1.4443974777184594e+00  1.4444793669162626e+00  1.4446397805263231e+00  0.0000000000000000e+00  7.6089284231933241e-01  7.6114917559236661e-01  7.6133221219005587e-01  7.6143884099647086e-01  7.6147448384210892e-01  8.5664837799523574e-01  8.5661609483215528e-01  8.5651591978833774e-01  8.5634688896448197e-01  8.5609551145748664e-01  0.0000000000000000e+00  1.4443214987845443e+00  1.4441148478545844e+00  1.4439876480153455e+00  1.4439406860030448e+00  1.4439719906557540e+00  1.4440813913666011e+00  1.4442792700076121e+00  0.0000000000000000e+00  8.5662933108749584e-01  8.5689423547613564e-01  8.5708143749780452e-01  8.5719119569658542e-01  8.5722525575965736e-01  9.5255642215896696e-01  9.5252904998026422e-01  9.5243425480909283e-01  9.5227174928710501e-01  9.5203453366076773e-01  0.0000000000000000e+00  1.4435960994569161e+00  1.4433769564738388e+00  1.4432465393166796e+00  1.4432003920108085e+00  1.4432372203752435e+00  1.4433580753179400e+00  1.4435689225467196e+00  0.0000000000000000e+00  9.5272356316312989e-01  9.5296761083929415e-01  9.5313756149131590e-01  9.5323641527786174e-01  9.5326466485588435e-01  1.0487241647795775e+00  1.0487044918403792e+00  1.0486264461727191e+00  1.0484904940474178e+00  1.0482946294952624e+00  0.0000000000000000e+00  1.4425045885846393e+00  1.4422959352975484e+00  1.4421746627338325e+00  1.4421326385373299e+00  1.4421699462828736e+00  1.4422884041436277e+00  1.4424899159994475e+00  0.0000000000000000e+00  1.0491469925575285e+00  1.0493425139818005e+00  1.0494761763435227e+00  1.0495534750574578e+00  1.0495731572491698e+00  1.1451149467844319e+00  1.1451045638826576e+00  1.1450515224846591e+00  1.1449568295848267e+00  1.1448223422477599e+00  0.0000000000000000e+00  1.4410645958926278e+00  1.4408871111453738e+00  1.4407864713679979e+00  1.4407522079292248e+00  1.4407854201326962e+00  1.4408884224552849e+00  1.4410591732282341e+00  0.0000000000000000e+00  1.1458313055116029e+00  1.1459585933881735e+00  1.1460424216757541e+00  1.1460905925824587e+00  1.1461000908067316e+00  1.2416668875103862e+00  1.2416661728034062e+00  1.2416429127023660e+00  1.2415983502105110e+00  1.2415373025648970e+00  0.0000000000000000e+00  1.4393295728024043e+00  1.4392001344545564e+00  1.4391293812193060e+00  1.4391056807506328e+00  1.4391309108606005e+00  1.4392077027765766e+00  1.4393306010107956e+00  0.0000000000000000e+00  1.2426828209598801e+00  1.2427306702612522e+00  1.2427574772896508e+00  1.2427726258588254e+00  1.2427716140887703e+00  1.3383018234134609e+00  1.3383100456661894e+00  1.3383178600442911e+00  1.3383264192791848e+00  1.3383426842004840e+00  0.0000000000000000e+00  1.4373815649407189e+00  1.4373119277371609e+00  1.4372772534797742e+00  1.4372659061168505e+00  1.4372802971617840e+00  1.4373231887601097e+00  1.4373863231532442e+00  0.0000000000000000e+00  1.3395945020941782e+00  1.3395601276822602e+00  1.3395287908860718e+00  1.3395105957330073e+00  1.3394999115160258e+00  1.4349346634012226e+00  1.4349501557038609e+00  1.4349870918671999e+00  1.4350462494059730e+00  1.4351359727848789e+00  0.0000000000000000e+00  1.4353222724463930e+00  1.4353184317342007e+00  1.4353226283095801e+00  1.4353243053743381e+00  1.4353261620073421e+00  1.4353308936341651e+00  1.4353281818708630e+00  0.0000000000000000e+00  1.4364563728172508e+00  1.4363449302541256e+00  1.4362599895707022e+00  1.4362114084327102e+00  1.4361928684358032e+00  1.5314823337143022e+00  1.5315027162504034e+00  1.5315639910522874e+00  1.5316663713746193e+00  1.5318188174492628e+00  0.0000000000000000e+00  1.4332636403234442e+00  1.4333255397413831e+00  1.4333678269438861e+00  1.4333820104517501e+00  1.4333708459987338e+00  1.4333367470627172e+00  1.4332682059841690e+00  0.0000000000000000e+00  1.5331656166557628e+00  1.5329892794963569e+00  1.5328602012708383e+00  1.5327870081651753e+00  1.5327631719922790e+00  1.6278718242766241e+00  1.6278942671274845e+00  1.6279728283200323e+00  1.6281070837467042e+00  1.6283057673269030e+00  0.0000000000000000e+00  1.4313178900444776e+00  1.4314394115906510e+00  1.4315154479728973e+00  1.4315404261619522e+00  1.4315169473921405e+00  1.4314469070688689e+00  1.4313186203684405e+00  0.0000000000000000e+00  1.6296353346923111e+00  1.6294120882038805e+00  1.6292523219501740e+00  1.6291625154406106e+00  1.6291364115237652e+00  1.7240469439903909e+00  1.7240684838454745e+00  1.7241556622018486e+00  1.7243075085776234e+00  1.7245315857014172e+00  0.0000000000000000e+00  1.4295874433787656e+00  1.4297566914494617e+00  1.4298587647993926e+00  1.4298916856580552e+00  1.4298577074348140e+00  1.4297579734757029e+00  1.4295817651625544e+00  0.0000000000000000e+00  1.7258018829679314e+00  1.7255540499563158e+00  1.7253798860601710e+00  1.7252829755206722e+00  1.7252578002456496e+00  1.8199734659174571e+00  1.8199911744582202e+00  1.8200774422548192e+00  1.8202311079389737e+00  1.8204572158619423e+00  0.0000000000000000e+00  1.4281551360448124e+00  1.4283550938233469e+00  1.4284725005879615e+00  1.4285095033160728e+00  1.4284678330969733e+00  1.4283476356018634e+00  1.4281404177301567e+00  0.0000000000000000e+00  1.8216306762604464e+00  1.8213830469482395e+00  1.8212122344355033e+00  1.8211184025091471e+00  1.8210971847198525e+00  1.9156424208536964e+00  1.9156542308705942e+00  1.9157306868769068e+00  1.9158705062727290e+00  1.9160747799227087e+00  0.0000000000000000e+00  1.4270754286532672e+00  1.4272847733777561e+00  1.4274045757527485e+00  1.4274411362621364e+00  1.4273953968831961e+00  1.4272661203501742e+00  1.4270485310455590e+00  0.0000000000000000e+00  1.9171198851426905e+00  1.9168975540104514e+00  1.9167477604125986e+00  1.9166667710146099e+00  1.9166519975425316e+00  2.0110693717692150e+00  2.0110733703446746e+00  2.0111315137306343e+00  2.0112432650636856e+00  2.0114038588275136e+00  0.0000000000000000e+00  1.4263653694079770e+00  1.4265619674442553e+00  1.4266705002373852e+00  1.4267015869467183e+00  1.4266549709844334e+00  1.4265287835468619e+00  1.4263236937923525e+00  0.0000000000000000e+00  2.0123019896063057e+00  2.0121285491307388e+00  2.0120144022623903e+00  2.0119543578622414e+00  2.0119475067683208e+00  2.1062955928922920e+00  2.1062936950663631e+00  2.1063299534313726e+00  2.1064040757633316e+00  2.1065033099948578e+00  0.0000000000000000e+00  1.4260059455893743e+00  1.4261654961268844e+00  1.4262467734452247e+00  1.4262676381652488e+00  1.4262284538658700e+00  1.4261248830088136e+00  1.4259578626219864e+00  0.0000000000000000e+00  2.1072500420845506e+00  2.1071343280938275e+00  2.1070670208073734e+00  2.1070327282661840e+00  2.1070339268161509e+00  2.2013713151633794e+00  2.2013622155036097e+00  2.2013752578424532e+00  2.2014278042064861e+00  2.2014895385795037e+00  0.0000000000000000e+00  1.4259369427776833e+00  1.4260234221030617e+00  1.4260781363994290e+00  1.4260901872460534e+00  1.4260564892994361e+00  1.4259528779725539e+00  1.4258160791417691e+00  0.0000000000000000e+00  2.2020233896287582e+00  2.2019995095833269e+00  2.2019797439382849e+00  2.2019725187905470e+00  2.2019799953356074e+00  2.2963619160667164e+00  2.2963518487185204e+00  2.2963525979565511e+00  2.2963562938577740e+00  2.2962989281139086e+00  0.0000000000000000e+00  1.4259076875487222e+00  1.4260895002529759e+00  1.4260770169283885e+00  1.4260817729230355e+00  1.4260638586291656e+00  1.4260735364200119e+00  1.4260934034619599e+00  0.0000000000000000e+00  2.2968435979882611e+00  2.2968127244244370e+00  2.2968379712661537e+00  2.2968519254528341e+00  2.2968630375577916e+00  2.3913351537539267e+00  2.3913233456969407e+00  2.3913018470766625e+00  2.3912434064259718e+00  2.3911935425709587e+00  0.0000000000000000e+00  1.4269734534960301e+00  1.4261615218272494e+00  1.4260802229765963e+00  1.4260951898231136e+00  1.4260919024054395e+00  1.4262195404432219e+00  1.4261209236460319e+00  0.0000000000000000e+00  2.3914938261218888e+00  2.3916507258645141e+00  2.3917142662094015e+00  2.3917460323113606e+00  2.3917571585229616e+00  2.4863429292775643e+00  2.4863442916782184e+00  2.4863216991881441e+00  2.4862932273732197e+00  2.4862871763500771e+00  0.0000000000000000e+00  0.0000000000000000e+00  0.0000000000000000e+00  0.0000000000000000e+00  0.0000000000000000e+00  0.0000000000000000e+00  0.0000000000000000e+00  0.0000000000000000e+00  0.0000000000000000e+00  2.4866399940478430e+00  2.4866631150142156e+00  2.4866811883326831e+00  2.4867021804795324e+00  2.4867154949328705e+00  2.5814456792610048e+00  2.5814077577643548e+00  2.5814048995062389e+00  2.5814078711360384e+00  2.5813727225218606e+00  0.0000000000000000e+00  0.0000000000000000e+00  0.0000000000000000e+00  0.0000000000000000e+00  0.0000000000000000e+00  0.0000000000000000e+00  0.0000000000000000e+00  0.0000000000000000e+00  0.0000000000000000e+00  2.5817554232371309e+00  2.5817085406705509e+00  2.5817180561519883e+00  2.5817394296447036e+00  2.5817291222728782e+00  2.6763777406635700e+00  2.6764081111069338e+00  2.6764404885120290e+00  2.6763630650179775e+00  2.6763382501747395e+00  0.0000000000000000e+00  0.0000000000000000e+00  0.0000000000000000e+00  0.0000000000000000e+00  0.0000000000000000e+00  0.0000000000000000e+00  0.0000000000000000e+00  0.0000000000000000e+00  0.0000000000000000e+00  2.6766079287132110e+00  2.6766350203919074e+00  2.6766644527628531e+00  2.6765897196844426e+00  2.6765706905457343e+00  2.7714591476567789e+00  2.7717731241028889e+00  2.7717487152989082e+00  2.7719290089230020e+00  2.7723007039106062e+00  0.0000000000000000e+00  0.0000000000000000e+00  0.0000000000000000e+00  0.0000000000000000e+00  0.0000000000000000e+00  0.0000000000000000e+00  0.0000000000000000e+00  0.0000000000000000e+00  0.0000000000000000e+00  2.7716132251947525e+00  2.7718999978421426e+00  2.7718653766933343e+00  2.7720337704979308e+00  2.7723882439231291e+00  2.8701366675948150e+00  2.8664181379535836e+00  2.8662356457121398e+00  2.8665177852749788e+00  2.8644254208455675e+00  0.0000000000000000e+00  0.0000000000000000e+00  0.0000000000000000e+00  0.0000000000000000e+00  0.0000000000000000e+00  0.0000000000000000e+00  0.0000000000000000e+00  0.0000000000000000e+00  0.0000000000000000e+00  2.8700882654896795e+00  2.8664246939767151e+00  2.8662388809842296e+00  2.8665167634932205e+00  2.8644533984029747e+00  </DataArray> 
</PointData> 
</Piece>
</UnstructuredGrid>
</VTKFile>