<?xml version="1.0"?>
<VTKFile type="UnstructuredGrid"  version="0.1"  >
<UnstructuredGrid>
<Piece  NumberOfPoints="589" NumberOfCells="1080">
<Points>
<DataArray  type="Float64"  NumberOfComponents="3"  format="ascii">-9 0 0  -8 0 0  -7 0 0  -6 0 0  -5 0 0  -4 0 0  -3 0 0  -2 0 0  -1 0 0  0 0 0  1 0 0  2 0 0  3 0 0  4 0 0  5 0 0  6 0 0  7 0 0  8 0 0  9 0 0  -9 2 0  -8.000007501658938 1.99998888282922 0  -7.000015737237342 1.999979119170715 0  -6.00002641964456 1.999971806092092 0  -5.0000434540332 1.999967418706469 0  -4.000025944162806 1.999975711218258 0  -3.000007904953237 1.999983482695272 0  -1.999999042211047 1.999990736559247 0  -0.9999974256790225 1.999996468790133 0  -3.364026279368783e-07 1.999998991254699 0  0.9999964163189287 1.999997279568956 0  1.999996896829117 1.999991755846825 0  3.000003835272836 1.999984982320045 0  4.000018073029755 1.999977751049671 0  5.000038642205952 1.999974864972531 0  6.00002328938269 1.999975913050309 0  7.000013835836246 1.999981420781272 0  8.000006602280012 1.999989942841163 0  9 2 0  -9 4 0  -8.000012067470166 3.999972352310986 0  -7.000021687185397 3.99994843654645 0  -6.000027431275708 3.999931909696764 0  -5.000029600878722 3.999926262194513 0  -4.000004217921677 3.999930125154173 0  -2.999987118080007 3.999951880974584 0  -1.999982490735779 3.999980183396593 0  -0.999988687163193 4.000002945434594 0  -7.833119344784703e-07 4.000012147902751 0  0.9999868506441141 4.000005062359231 0  1.999979741807362 3.999985836180511 0  2.999983414900242 3.999959809500975 0  3.999999540810115 3.999933683658308 0  5.000024067628909 3.999925080037665 0  6.000022981491964 3.999933987942772 0  7.000018791524579 3.999950784989649 0  8.000010679163502 3.999973746057814 0  9 4 0  -9 6 0  -8.000026423425577 5.999940897507599 0  -7.000043139571075 5.999888201413843 0  -6.000042740885859 5.999848498933392 0  -5.000023102725762 5.999828107299591 0  -3.999973755297166 5.999860330235093 0  -2.999951220560809 5.999927562635804 0  -1.999959874762611 5.99999801616709 0  -0.9999817090757585 6.000037185824921 0  -3.790554117699488e-06 6.000045090100945 0  0.9999764022122715 6.000032465837559 0  1.999961375393243 5.99999750943693 0  2.999955860472004 5.999938461011388 0  3.999967619309508 5.999877275147926 0  5.000009613792909 5.999847093741039 0  6.000035088888523 5.999860509164265 0  7.000039435878263 5.999895496441991 0  8.000025021915359 5.999944380945306 0  9 6 0  -9 8 0  -8.000079598753215 7.99988383279387 0  -7.000133045341731 7.999776008688168 0  -6.000135004986989 7.999687861404245 0  -5.000063789279274 7.999638076441754 0  -3.999968508078795 7.999786609526001 0  -2.999985951595148 7.999961091182194 0  -2.000021570729643 8.000046094412092 0  -1.000024490789997 8.000055764272235 0  -3.095272135891044e-06 8.000058572195551 0  1.000012987186033 8.000067085715934 0  2.000006651706186 8.000031737670769 0  2.999965593173463 7.999971510109196 0  3.999951898866844 7.999822310803216 0  5.000045349016323 7.99965395886143 0  6.000131696759696 7.999700766069671 0  7.000135110332104 7.999784636655742 0  8.0000817847204 7.999888090980479 0  9 8 0  -9 10 0  -8.000237303717372 9.999793459369771 0  -7.000428812141656 9.999585207206122 0  -6.000519889879525 9.999373937134399 0  -5.000434424161313 9.99915930701887 0  -4.000283483293845 9.999638634799094 0  -3.000308009155779 10.00005074912713 0  -2.000246540040613 9.999979723677599 0  -1.000113751335196 9.99995693185021 0  -1.593152330772046e-05 9.999951373294385 0  1.000081059475534 9.999951810051829 0  2.000210020669359 9.999949267533642 0  3.000323811235182 10.00009698891381 0  4.000309964009663 9.999707339974389 0  5.000480950463266 9.999193219476611 0  6.000559872745262 9.999392899459471 0  7.000457635242307 9.999595514562342 0  8.000252314455341 9.999798028290055 0  9 10 0  -9 12 0  -8.000577823926646 11.99971006797704 0  -7.001125704393102 11.99940670657729 0  -6.001609796757604 11.99907385250224 0  -5.001988114379135 11.99868910272522 0  -4.001911110271186 11.99956275896474 0  -3.001980855175121 12.00042769880045 0  -2.00136079158672 12.00032278891924 0  -1.000671330314768 12.00026586972273 0  4.441838009611797e-05 12.00025450494104 0  1.000767343990196 12.00029046977722 0  2.001481382874072 12.00038427350518 0  3.00215458337557 12.00056225396842 0  4.002080714266 11.99962785453475 0  5.00212974558633 11.99868573799174 0  6.001711859774485 11.9990735911544 0  7.001192078850218 11.99940698155514 0  8.000610565258434 11.99971024744921 0  9 12 0  -9 14 0  -8.001037362936831 13.99968054767116 0  -7.002076540527114 13.9993464424307 0  -6.00312073550257 13.99898173876933 0  -5.004176706570414 13.99856795655369 0  -4.004187773959707 13.99958875793256 0  -3.004194052358368 14.00062249491201 0  -2.002754058675527 14.00047417501293 0  -1.001334684572327 14.00039284033478 0  7.623693912860796e-05 14.00036854803728 0  1.001490278753847 14.00039805614985 0  2.002918197222073 14.00048297895549 0  3.004368518937918 14.00062794246113 0  4.004380066327967 13.99959102406245 0  5.004386193308151 13.99856056732591 0  6.003269608957001 13.99897272872749 0  7.002172388181292 13.99933930215892 0  8.001084359001394 13.99967671465405 0  9 14 0  -9 16 0  -8.001488613502373 15.9997097411342 0  -7.003005611117001 15.99940878811109 0  -6.00458184019438 15.99908626420047 0  -5.006253174236419 15.99873110067625 0  -4.00631274025808 15.99960177323058 0  -3.006256665671232 16.0004678245092 0  -2.004067513337116 16.00035844715465 0  -1.001965397547178 16.00029230739966 0  9.561752711714879e-05 16.00026799073196 0  1.002158945800562 16.00028457442087 0  2.004268015378146 16.00034211195106 0  3.006469037398454 16.00044141270521 0  4.006532139990806 15.99956393676743 0  5.006476965059634 15.9986857943839 0  6.004746832386358 15.99905462197938 0  7.003114070063109 15.9993885492416 0  8.001542361763045 15.99969983926254 0  9 16 0  -9 18 0  -8.001825240982944 17.999781737773 0  -7.003695811533695 17.99955752428288 0  -6.005659399664215 17.99932152053172 0  -5.007768384490495 17.99906813607509 0  -4.007858184842748 17.99960475072469 0  -3.007771805308308 18.00014067449646 0  -2.00503623403035 18.0000704465667 0  -1.002433304765577 18.00002518500592 0  0.0001056829103499743 18.000004526838 0  1.002646095846309 18.00000795651649 0  2.005253208945424 18.00003484212006 0  3.007995399869946 18.00008430563476 0  4.008086915621828 17.99954373801976 0  5.007999765784223 17.99900477130066 0  6.005831070017124 17.99927637459161 0  7.003809335232417 17.99952850401618 0  8.001881721400528 17.99976753867403 0  9 18 0  -9 20 0  -8.001979545196678 19.99987752228962 0  -7.004011953285481 19.99975344706985 0  -6.006152102684573 19.99962635715637 0  -5.008458901583327 19.99949518925157 0  -4.008561270846196 19.99960480141604 0  -3.008460336736015 19.99971364460518 0  -2.005478229284996 19.99968307786862 0  -1.002647265904863 19.9996601631492 0  0.0001099710969336532 19.99964522391712 0  1.002868098850062 19.99963801008854 0  2.005701697902725 19.99963771821803 0  3.008688087088117 19.99964294245433 0  4.008791013232301 19.99953370446 0  5.008689455482254 19.99942555509252 0  6.006323863198631 19.99957609429903 0  7.004125900105175 19.99972087192678 0  8.00203634889159 19.99986151444827 0  8.999999999989795 19.9999999999934 0  -9 22 0  -8.001921469523024 21.99997967726244 0  -7.003895154175036 21.99996142355019 0  -6.005974901378035 21.99994750849287 0  -5.00821781056707 21.99994060684029 0  -4.008317978557637 21.99960076992363 0  -3.008218766334223 21.99926006906777 0  -2.005319538703018 21.99926526518723 0  -1.002568156170978 21.99926341921266 0  0.000110691319867625 21.99925519926217 0  1.002790037529979 21.99924054151323 0  2.005542894628822 21.99921866425303 0  3.008444510270535 21.99918805462158 0  4.008543374116108 21.99953048831583 0  5.008442205007502 21.99987353004863 0  6.006142678314141 21.99989884583887 0  7.004006743080124 21.99992976048982 0  8.001977179826346 21.99996407930472 0  9 22 0  -9 24 0  -8.001653580211809 24.00007355644072 0  -7.003352087404855 24.00015204380134 0  -6.005141696511629 24.00024059752462 0  -5.00707103356676 24.00034477552832 0  -4.007157390430378 23.99959290659569 0  -3.007072634980648 23.99884025401529 0  -2.004573241592706 23.99887546861848 0  -1.002200647571635 23.99889202753084 0  0.0001095071130964167 23.99889078058429 0  1.002419863991222 23.9988717946894 0  2.004793049575367 23.99883436090943 0  3.007293385245104 23.99877698927622 0  4.007375914825983 23.99953228595896 0  5.007287245300359 24.00028791799997 0  6.005303812051097 24.00019917780412 0  7.003460125234272 24.00012501355045 0  8.001707581471162 24.00006021658562 0  9 24 0  -9 26 0  -8.001204906183229 26.00014773111709 0  -7.002442446831759 26.00030240908269 0  -6.003746143044695 26.00047118691489 0  -5.005151120008347 26.00066164457533 0  -4.00521484560576 25.99958175116227 0  -3.005154117377966 25.99850124669663 0  -2.00332336205494 25.99855993793574 0  -1.001585028572431 25.99859151759291 0  0.0001076694464709985 25.9985969714079 0  1.001800348447747 25.99857648337749 0  2.003538610454424 25.998529436435 0  3.005369200511409 25.99845441052941 0  4.005426355996176 25.99953743552675 0  5.005359371445782 26.00062059466892 0  6.003902665756102 26.00044120500897 0  7.002546938354786 26.0002828046937 0  8.001257186780505 26.00013804379322 0  9 26 0  -9 28 0  -8.000624435894375 28.00019414053863 0  -7.001265888442838 28.00039638766217 0  -6.001941877663904 28.00061505630346 0  -5.00267069392723 28.00085888458057 0  -4.002705766851737 27.99956835051186 0  -3.002675340490554 27.998277492758 0  -2.001707356247028 27.99835249694053 0  -1.000788480484035 27.99839514771177 0  0.0001060659348069849 27.99840655855621 0  1.001000443659502 27.99838702668529 0  2.001918796139878 27.99833603326389 0  3.002885851634902 27.99825224236196 0  4.00291189215281 27.9995447746586 0  5.002873003361334 28.00083735677492 0  6.002094210499794 28.0005992992917 0  7.0013677153831 28.00038606761212 0  8.000675424892448 28.000
[...]
<PointData  Scalars="f_44-1"> 
<DataArray  type="Float64"  Name="f_44-1"  format="ascii">1.5662345157579989e-03  8.2117476048542410e-05  6.6264581859122652e-05  1.9112507517434884e-04  -1.8406679500710974e-03  0.0000000000000000e+00  0.0000000000000000e+00  0.0000000000000000e+00  0.0000000000000000e+00  0.0000000000000000e+00  0.0000000000000000e+00  0.0000000000000000e+00  0.0000000000000000e+00  0.0000000000000000e+00  1.5820593306478459e-03  8.1716917680173538e-05  6.6845646512132852e-05  1.8787555046578135e-04  -1.8701700152611832e-03  8.6584497752110204e-02  8.6636660827186365e-02  8.6557052329733292e-02  8.6314918647209735e-02  8.6198422640197683e-02  0.0000000000000000e+00  0.0000000000000000e+00  0.0000000000000000e+00  0.0000000000000000e+00  0.0000000000000000e+00  0.0000000000000000e+00  0.0000000000000000e+00  0.0000000000000000e+00  0.0000000000000000e+00  8.6747252811481046e-02  8.6798606519664423e-02  8.6716480129875428e-02  8.6471778554097767e-02  8.6353579661960375e-02  1.7305040675198946e-01  1.7304157906746354e-01  1.7299862088076690e-01  1.7297564967231888e-01  1.7299680573438794e-01  0.0000000000000000e+00  0.0000000000000000e+00  0.0000000000000000e+00  0.0000000000000000e+00  0.0000000000000000e+00  0.0000000000000000e+00  0.0000000000000000e+00  0.0000000000000000e+00  0.0000000000000000e+00  1.7335245368600657e-01  1.7335253302258460e-01  1.7331786153619425e-01  1.7330075064276176e-01  1.7332782804838076e-01  2.5955705936600448e-01  2.5955068133952219e-01  2.5954441862652333e-01  2.5953856528519248e-01  2.5951965213510786e-01  0.0000000000000000e+00  0.0000000000000000e+00  0.0000000000000000e+00  0.0000000000000000e+00  0.0000000000000000e+00  0.0000000000000000e+00  0.0000000000000000e+00  0.0000000000000000e+00  0.0000000000000000e+00  2.6002448868454764e-01  2.6001457219893581e-01  2.6001425054987298e-01  2.6001755008433813e-01  2.6001789742745390e-01  3.4611052664680719e-01  3.4609813327850142e-01  3.4607275483706973e-01  3.4601053285753675e-01  3.4596313368935100e-01  0.0000000000000000e+00  0.0000000000000000e+00  0.0000000000000000e+00  0.0000000000000000e+00  0.0000000000000000e+00  0.0000000000000000e+00  0.0000000000000000e+00  0.0000000000000000e+00  0.0000000000000000e+00  3.4666903983059016e-01  3.4669404958336786e-01  3.4670003432552926e-01  3.4670802452949739e-01  3.4671390473446301e-01  4.3270760307364436e-01  4.3269180066586255e-01  4.3267225628464612e-01  4.3267009297545134e-01  4.3270423107775785e-01  0.0000000000000000e+00  1.3167758500664690e+00  1.3166867067390653e+00  1.3168287537158179e+00  1.3168357061195948e+00  1.3168399764462206e+00  1.3167323734096161e+00  1.3159366536717696e+00  0.0000000000000000e+00  4.3336465303040672e-01  4.3336821186585267e-01  4.3337816605060142e-01  4.3340025604839144e-01  4.3341299812247513e-01  5.1933532733948307e-01  5.1931180377403752e-01  5.1926989513146371e-01  5.1921479231580225e-01  5.1909300811918158e-01  0.0000000000000000e+00  1.3168435835327166e+00  1.3168795548830505e+00  1.3168961347255779e+00  1.3168788294052984e+00  1.3168771903459899e+00  1.3168578573080416e+00  1.3170182149111158e+00  0.0000000000000000e+00  5.1990043764183680e-01  5.1997969436559888e-01  5.2007046306305738e-01  5.2012241332560238e-01  5.2014436670871544e-01  6.0604718649898470e-01  6.0601684066415318e-01  6.0594761274587439e-01  6.0583890255739536e-01  6.0567154180122473e-01  0.0000000000000000e+00  1.3172070990529954e+00  1.3170661258784397e+00  1.3169613798188156e+00  1.3169251856671524e+00  1.3169337473441756e+00  1.3169827294638232e+00  1.3170666313836548e+00  0.0000000000000000e+00  6.0654467814670687e-01  6.0673269486682302e-01  6.0686836543379696e-01  6.0695028302889253e-01  6.0698079286666329e-01  6.9291986444113696e-01  6.9288576331120921e-01  6.9279489192932486e-01  6.9264558005373655e-01  6.9241819792439041e-01  0.0000000000000000e+00  1.3171355033385979e+00  1.3169629524732598e+00  1.3168544359036409e+00  1.3168108454368805e+00  1.3168281275667342e+00  1.3169062697871323e+00  1.3170619774103596e+00  0.0000000000000000e+00  6.9345101642336993e-01  6.9369533142282935e-01  6.9387193282420656e-01  6.9397551990246620e-01  6.9400975898175321e-01  7.8001909766756272e-01  7.7998517168458026e-01  7.7988456015566265e-01  7.7971545539048526e-01  7.7946350691158861e-01  0.0000000000000000e+00  1.3168378348348178e+00  1.3166237208986560e+00  1.3164910537345782e+00  1.3164397729445925e+00  1.3164677852985291e+00  1.3165747761295141e+00  1.3167720022158080e+00  0.0000000000000000e+00  7.8071768341517744e-01  7.8097280384501544e-01  7.8115375111396457e-01  7.8126052854694927e-01  7.8129353094005527e-01  8.6738085612890858e-01  8.6735084513870364e-01  8.6725340807506979e-01  8.6708745383844243e-01  8.6684319557351286e-01  0.0000000000000000e+00  1.3161771380805136e+00  1.3159480904280447e+00  1.3158105345754840e+00  1.3157592002805067e+00  1.3157929705362386e+00  1.3159128065641146e+00  1.3161254207185871e+00  0.0000000000000000e+00  8.6832535350054618e-01  8.6856318036840174e-01  8.6872875933595939e-01  8.6882589730561621e-01  8.6885371936562383e-01  9.5500617517793129e-01  9.5498301083020498e-01  9.5490009220054051e-01  9.5475702179760857e-01  9.5454777376388411e-01  0.0000000000000000e+00  1.3151398770761162e+00  1.3149196802847862e+00  1.3147902258392359e+00  1.3147425455288935e+00  1.3147768523146366e+00  1.3148949480932903e+00  1.3150995321426036e+00  0.0000000000000000e+00  9.5625100680612662e-01  9.5644446540434014e-01  9.5657621892474598e-01  9.5665321566523509e-01  9.5667293854052515e-01  1.0428639855715980e+00  1.0428495589309401e+00  1.0427898564740135e+00  1.0426849506564040e+00  1.0425320719560343e+00  0.0000000000000000e+00  1.3137412006414848e+00  1.3135518079844823e+00  1.3134426460754609e+00  1.3134024242937832e+00  1.3134324014079677e+00  1.3135349706652844e+00  1.3137088334820715e+00  0.0000000000000000e+00  1.0444325695346099e+00  1.0445614221967403e+00  1.0446457445108259e+00  1.0446948480892830e+00  1.0447046467631704e+00  1.1308974308787447e+00  1.1308925288907690e+00  1.1308616199784514e+00  1.1308049487209437e+00  1.1307226351630895e+00  0.0000000000000000e+00  1.3120340025308652e+00  1.3118937148767167e+00  1.3118149135144423e+00  1.3117852445555274e+00  1.3118067865331990e+00  1.3118823187654192e+00  1.3120069623293893e+00  0.0000000000000000e+00  1.1327824551068093e+00  1.1328341192153430e+00  1.1328630776314339e+00  1.1328798722148539e+00  1.1328791283612287e+00  1.2190318501637594e+00  1.2190361906266816e+00  1.2190363510131879e+00  1.2190324347158534e+00  1.2190270426272665e+00  0.0000000000000000e+00  1.3101024160579242e+00  1.3100242599555754e+00  1.3099827580167340e+00  1.3099657329013594e+00  1.3099758428443895e+00  1.3100160312667046e+00  1.3100783834193002e+00  0.0000000000000000e+00  1.2211978638463323e+00  1.2211678071180092e+00  1.2211392036990758e+00  1.2211226786728457e+00  1.2211119128713039e+00  1.3071835638922455e+00  1.3071959033906755e+00  1.3072261519895487e+00  1.3072739935966033e+00  1.3073440577138347e+00  0.0000000000000000e+00  1.3080524736780603e+00  1.3080432799141715e+00  1.3080423770209220e+00  1.3080389163331756e+00  1.3080358706375435e+00  1.3080361207733253e+00  1.3080294255310987e+00  0.0000000000000000e+00  1.3095706328828052e+00  1.3094623307154785e+00  1.3093796145689052e+00  1.3093320597809255e+00  1.3093128026347067e+00  1.3952687521737561e+00  1.3952870515170566e+00  1.3953434028933125e+00  1.3954368748466486e+00  1.3955735663998015e+00  0.0000000000000000e+00  1.3060018303336167e+00  1.3060617560269003e+00  1.3061008338112199e+00  1.3061105598746994e+00  1.3060939672868237e+00  1.3060536338095279e+00  1.3059778655873391e+00  0.0000000000000000e+00  1.3977973541833009e+00  1.3976217399776212e+00  1.3974935393378574e+00  1.3974202362429617e+00  1.3973948399664240e+00  1.4832118487925146e+00  1.4832334913538949e+00  1.4833093983965531e+00  1.4834379348328020e+00  1.4836259547790458e+00  0.0000000000000000e+00  1.3040686280377529e+00  1.3041911018722863e+00  1.3042655992572421e+00  1.3042868144272333e+00  1.3042575836075472e+00  1.3041799378441798e+00  1.3040417771351598e+00  0.0000000000000000e+00  1.4857887176887472e+00  1.4855632071362723e+00  1.4854025665173680e+00  1.4853113011309784e+00  1.4852827025496429e+00  1.5709529169049432e+00  1.5709749831764031e+00  1.5710619453419834e+00  1.5712115250283747e+00  1.5714304299189732e+00  0.0000000000000000e+00  1.3023602325414865e+00  1.3025323500120511e+00  1.3026340137734103e+00  1.3026637440597377e+00  1.3026239572814986e+00  1.3025158974130142e+00  1.3023282708346393e+00  0.0000000000000000e+00  1.5734777935189961e+00  1.5732248719432218e+00  1.5730481839586536e+00  1.5729485732539805e+00  1.5729200093173998e+00  1.6584535869100361e+00  1.6584730845751812e+00  1.6585614500771706e+00  1.6587160042911822e+00  1.6589420500052232e+00  0.0000000000000000e+00  1.3009625144220036e+00  1.3011658887092445e+00  1.3012832743267353e+00  1.3013174419200875e+00  1.3012701797186681e+00  1.3011417157974126e+00  1.3009228825962389e+00  0.0000000000000000e+00  1.6608268089480935e+00  1.6605721350308273e+00  1.6603977339883598e+00  1.6603003612371712e+00  1.6602750415469207e+00  1.7457006271420794e+00  1.7457151598275300e+00  1.7457954639173359e+00  1.7459386252234688e+00  1.7461470253339884e+00  0.0000000000000000e+00  1.2999304814989530e+00  1.3001424410435771e+00  1.3002618270510051e+00  1.3002955879132156e+00  1.3002446385426001e+00  1.3001078886723103e+00  1.2998798159098857e+00  0.0000000000000000e+00  1.7478318878490391e+00  1.7476019415433122e+00  1.7474483348257770e+00  1.7473636093013376e+00  1.7473443184372779e+00  1.8327072889764293e+00  1.8327146961815381e+00  1.8327778049845245e+00  1.8328941753815384e+00  1.8330617572377716e+00  0.0000000000000000e+00  1.2992795459457740e+00  1.2994766491589347e+00  1.2995835133878524e+00  1.2996116207904844e+00  1.2995606105437463e+00  1.2994284696367786e+00  1.2992149862363984e+00  0.0000000000000000e+00  1.8345255225267265e+00  1.8343447345050337e+00  1.8342279366800163e+00  1.8341647589409624e+00  1.8341533942452999e+00  1.9195113432281086e+00  1.9195123709837518e+00  1.9195541656407280e+00  1.9196351644726404e+00  1.9197448887351751e+00  0.0000000000000000e+00  1.2989874145916931e+00  1.2991434270018574e+00  1.2992216866857469e+00  1.2992391498654920e+00  1.2991958308022868e+00  1.2990876244492056e+00  1.2989153341679709e+00  0.0000000000000000e+00  1.9209782832202098e+00  1.9208608198010848e+00  1.9207930680628607e+00  1.9207571571249826e+00  1.9207542544376821e+00  2.0061654455001623e+00  2.0061595084975621e+00  2.0061760191055269e+00  2.0062243822582659e+00  2.0062840163427071e+00  0.0000000000000000e+00  1.2989830020280853e+00  1.2990670487173985e+00  1.2991164181406396e+00  1.2991251096105632e+00  1.2990886513925732e+00  1.2989833758081577e+00  1.2988425543698396e+00  0.0000000000000000e+00  2.0072675690276007e+00  2.0072389257410799e+00  2.0072217530215908e+00  2.0072145292046630e+00  2.0072187975029663e+00  2.0927374049600744e+00  2.0927285313047541e+00  2.0927279040880973e+00  2.0927296205276589e+00  2.0926787391935240e+00  0.0000000000000000e+00  1.2990321687354411e+00  1.2991933860638294e+00  1.2991748514303114e+00  1.2991735428571602e+00  1.2991560753501308e+00  1.2991718430816672e+00  1.2992054844148866e+00  0.0000000000000000e+00  2.0935857870346455e+00  2.0935727304380940e+00  2.0936036131222324e+00  2.0936191043888406e+00  2.0936275844248935e+00  2.1792987294641084e+00  2.1792885523567986e+00  2.1792685192572763e+00  2.1792158024409671e+00  2.1791603212921835e+00  0.0000000000000000e+00  1.3001127575081886e+00  1.2993204335021900e+00  1.2992156207854835e+00  1.2992202483764050e+00  1.2992266448145671e+00  1.2993658993263371e+00  1.2992777901755139e+00  0.0000000000000000e+00  2.1798187070650608e+00  2.1799592345695769e+00  2.1800174548163618e+00  2.1800448256324128e+00  2.1800534742000726e+00  2.2659007770356703e+00  2.2658972200855083e+00  2.2658780163348480e+00  2.2658506599518313e+00  2.2658379248020859e+00  0.0000000000000000e+00  0.0000000000000000e+00  0.0000000000000000e+00  0.0000000000000000e+00  0.0000000000000000e+00  0.0000000000000000e+00  0.0000000000000000e+00  0.0000000000000000e+00  0.0000000000000000e+00  2.2664944520284553e+00  2.2665048720073084e+00  2.2665143482854488e+00  2.2665303155519072e+00  2.2665376876487278e+00  2.3525674573945632e+00  2.3525396120811184e+00  2.3525354751606664e+00  2.3525311612706874e+00  2.3525019202738595e+00  0.0000000000000000e+00  0.0000000000000000e+00  0.0000000000000000e+00  0.0000000000000000e+00  0.0000000000000000e+00  0.0000000000000000e+00  0.0000000000000000e+00  0.0000000000000000e+00  0.0000000000000000e+00  2.3530856884809710e+00  2.3530486135021573e+00  2.3530533504211375e+00  2.3530644174874049e+00  2.3530579411634163e+00  2.4391488173015814e+00  2.4391893741395987e+00  2.4392078322889419e+00  2.4391445674427383e+00  2.4391307129856838e+00  0.0000000000000000e+00  0.0000000000000000e+00  0.0000000000000000e+00  0.0000000000000000e+00  0.0000000000000000e+00  0.0000000000000000e+00  0.0000000000000000e+00  0.0000000000000000e+00  0.0000000000000000e+00  2.4395159843573904e+00  2.4395504356813880e+00  2.4395655269209291e+00  2.4395033972403062e+00  2.4394929317114284e+00  2.5259366188130152e+00  2.5260741135400240e+00  2.5259570352556975e+00  2.5260441267857199e+00  2.5262833045004354e+00  0.0000000000000000e+00  0.0000000000000000e+00  0.0000000000000000e+00  0.0000000000000000e+00  0.0000000000000000e+00  0.0000000000000000e+00  0.0000000000000000e+00  0.0000000000000000e+00  0.0000000000000000e+00  2.5261422946758594e+00  2.5262621612056466e+00  2.5261405459972046e+00  2.5262209157978690e+00  2.5264490374425161e+00  2.6154319467439060e+00  2.6122892056533251e+00  2.6122620093362543e+00  2.6123965212654867e+00  2.6105769151506828e+00  0.0000000000000000e+00  0.0000000000000000e+00  0.0000000000000000e+00  0.0000000000000000e+00  0.0000000000000000e+00  0.0000000000000000e+00  0.0000000000000000e+00  0.0000000000000000e+00  0.0000000000000000e+00  2.6153809330077866e+00  2.6122941311153292e+00  2.6122642916541809e+00  2.6123955653240887e+00  2.6106050599836306e+00  </DataArray> 
</PointData> 
</Piece>
</UnstructuredGrid>
</VTKFile>