<?xml version="1.0"?>
<VTKFile type="UnstructuredGrid"  version="0.1"  >
<UnstructuredGrid>
<Piece  NumberOfPoints="589" NumberOfCells="1080">
<Points>
<DataArray  type="Float64"  NumberOfComponents="3"  format="ascii">-9 0 0  -8 0 0  -7 0 0  -6 0 0  -5 0 0  -4 0 0  -3 0 0  -2 0 0  -1 0 0  0 0 0  1 0 0  2 0 0  3 0 0  4 0 0  5 0 0  6 0 0  7 0 0  8 0 0  9 0 0  -9 2 0  -8.000005852711498 1.999991221333639 0  -7.000012257700362 1.999983531594502 0  -6.000020539064517 1.999977816030082 0  -5.000033745244521 1.999974466692193 0  -4.000019941437821 1.999980920231443 0  -3.000005782239671 1.999987070282966 0  -1.999998901996372 1.999992857199522 0  -0.9999978025976648 1.999997436750227 0  -3.206019297322354e-07 1.999999462381268 0  0.9999968818127244 1.999998115071552 0  1.999997039565151 1.999993738644662 0  3.000002313763526 1.999988392810953 0  4.000013345199968 1.999982743972519 0  5.000029308160884 1.999980656539665 0  6.000017605864148 1.999981321880469 0  7.000010453136056 1.99998553659277 0  8.000004991677439 1.999992155518544 0  9 2 0  -9 4 0  -8.000009496209408 3.999978087395843 0  -7.000017009919229 3.999959166816649 0  -6.000021378820705 3.999946167332002 0  -5.000022834740068 3.999941877478593 0  -4.000002721006084 3.999944978759781 0  -2.999989259208633 3.999962368444697 0  -1.999985798208557 3.999984977541955 0  -0.9999910152641126 4.000003179942776 0  -9.546185828425075e-07 4.000010561011722 0  0.9999888841191074 4.000004952428391 0  1.999982908690726 3.999989686525447 0  2.999985523994921 3.999969041110679 0  3.999998072308284 3.999948373372479 0  5.000017366689933 3.999941774736889 0  6.00001701337897 3.99994844655073 0  7.000014141094156 3.999961456783581 0  8.00000810406042 3.999979409284542 0  9 4 0  -9 6 0  -8.000021069144397 5.999952987509406 0  -7.000034341319149 5.999911119651452 0  -6.000033870503364 5.999879682027976 0  -5.000017959220911 5.999863731739912 0  -3.999978665569426 5.999889593043747 0  -2.999960852890283 5.999943440835748 0  -1.999968056864303 5.999999851779085 0  -0.9999858090626815 6.000031189155883 0  -3.735309199431895e-06 6.000037518727802 0  0.9999801720864561 6.000027490296368 0  1.999967897943641 5.99999967001339 0  2.999963227836505 5.999952656004882 0  3.999972358417089 5.999903982349165 0  5.000005628537708 5.999880068568454 0  6.000026496740908 5.999890219367459 0  7.000030487469192 5.999917609980267 0  8.000019483714429 5.999956112159518 0  9 6 0  -9 8 0  -8.000063823740252 7.999907319033918 0  -7.000106640871694 7.999821362238095 0  -6.000108121832242 7.99975125792412 0  -5.000050921200644 7.999712038825908 0  -3.99997470183849 7.999831126397719 0  -2.999989040084433 7.999971008465864 0  -2.000017930737784 8.00003905542337 0  -1.000020573097824 8.000046642906295 0  -3.67599799501974e-06 8.000048826386406 0  1.000008984936851 8.000055665596744 0  2.00000375903443 8.000027530350293 0  2.999970744139081 7.999979654752942 0  3.999959512281725 7.999860692112525 0  5.000033900162715 7.999726420693122 0  6.000103482384165 7.999763047525356 0  7.000106803088769 7.999829328034367 0  8.00006477580029 7.999911280763358 0  9 8 0  -9 10 0  -8.000190554333511 9.999834794464292 0  -7.000344231111052 9.999668257754617 0  -6.000417048328032 9.999499396622738 0  -5.000347790815638 9.999328015018323 0  -4.000226688544033 9.999713098190689 0  -3.000247052555542 10.00004411981516 0  -2.000198420873505 9.99998657632139 0  -1.000092277230151 9.999968114926203 0  -1.428087761224271e-05 9.999963614911591 0  1.000062989543389 9.999964012470459 0  2.000165790789921 9.999962141006433 0  3.000256268750935 10.00008066304767 0  4.000244868461247 9.999769456967677 0  5.000381476972539 9.999358690013304 0  6.000445407154072 9.999517343262839 0  7.000364443347019 9.99967840308984 0  8.000201018032413 9.999839412342004 0  9 10 0  -9 12 0  -8.000464560793452 11.99976768156816 0  -7.000904876957936 11.99952459781572 0  -6.00129353439693 11.99925787317765 0  -5.00159653992448 11.99894954727066 0  -4.001534294648983 11.99965286010874 0  -3.001590742593576 12.00034922772724 0  -2.00109578489831 12.00026453675328 0  -1.000544190139703 12.0002183506902 0  2.901067563723989e-05 12.00020874331443 0  1.000608186640516 12.00023712202916 0  2.001180209333515 12.00031186366084 0  3.001719223194613 12.00045397855128 0  4.001660008316526 11.99970658603286 0  5.001699397437291 11.99895305967547 0  6.001366382281523 11.99926220182452 0  7.00095166696307 11.99952779651036 0  8.000487470746872 11.99976930213806 0  9 12 0  -9 14 0  -8.000835060907896 13.99974372860864 0  -7.001671381349106 13.99947567219466 0  -6.002511299845854 13.99918300428725 0  -5.003359978948804 13.99885085596658 0  -4.003368385571197 13.99967459504987 0  -3.003373928328898 14.00050874653496 0  -2.002220610679063 14.00038865847416 0  -1.001082931123033 14.0003224317747 0  4.850850764904554e-05 14.00030207392427 0  1.001182696720726 14.00032495913135 0  2.002327998598006 14.00039235085637 0  3.003490987913676 14.00050792652335 0  4.003500208096987 13.99967784831169 0  5.00350530104108 13.99885294487408 0  6.00261300479971 13.99918162724482 0  7.001736139446486 13.99947377143829 0  8.000866601367997 13.99974254623677 0  9 14 0  -9 16 0  -8.00119986001709 15.99976698170546 0  -7.002422401849285 15.99952533198004 0  -6.003692265902307 15.99926626664304 0  -5.005038118973135 15.99898083981878 0  -4.005085673393951 15.99968587911982 0  -3.005040973454741 16.00038720607877 0  -2.003284594453256 16.0002978649177 0  -1.001597465525666 16.000243464281 0  5.703386139908358e-05 16.00022281728122 0  1.001713538065099 16.00023514858123 0  2.003406704739217 16.00028047959408 0  3.005173409797815 16.0003594538062 0  4.005224015631784 15.99965674646842 0  5.005179900728445 15.99895349322949 0  6.003795952731986 15.99924746223428 0  7.002490121503167 15.99951340359238 0  8.001233281129064 15.99976116893409 0  9 16 0  -9 18 0  -8.001473230307541 17.9998247781825 0  -7.002982879981126 17.99964472339656 0  -6.004567260707365 17.99945508706539 0  -5.006268462378302 17.99925131367829 0  -4.006340601960752 17.9996888772161 0  -3.006271339647441 18.00012587546509 0  -2.004073766785626 18.00006774656715 0  -1.001982510742739 18.00002993477465 0  5.749383877703178e-05 18.00001209436453 0  1.002098650419444 18.00001377586634 0  2.004193289108544 18.00003445352459 0  3.006396221155129 18.00007342236626 0  4.006469715333172 17.99964088369564 0  5.006399785229727 17.9992096147783 0  6.004664203667271 17.99942557257351 0  7.003046740999909 17.99962584114077 0  8.001504925673485 17.99981556558267 0  9 18 0  -9 20 0  -8.001600273455868 19.9999018959548 0  -7.003243149259755 19.99980245829377 0  -6.004972859937736 19.99970049405619 0  -5.006836900935712 19.99959508906268 0  -4.006919401986336 19.99968929391154 0  -3.006838183695433 19.99978289197969 0  -2.004440143719771 19.99975668295567 0  -1.002163728152127 19.99973685255918 0  5.329136155406113e-05 19.99972361537617 0  1.002270889219826 19.99971673896353 0  2.004549006945226 19.99971555927078 0  3.006949782169322 19.99971894145819 0  4.007032551297161 19.99963293156935 0  5.006950919135928 19.99954780916315 0  6.00505768345197 19.99966648677751 0  7.003299359049362 19.99978047762842 0  8.00162827444435 19.99989111242596 0  8.999999999995698 19.99999999999322 0  -9 22 0  -8.001556306346297 21.99998433598925 0  -7.003154800920308 21.99997029692889 0  -6.004838999363496 21.99995966691086 0  -5.00665506457455 21.99995455168351 0  -4.00673593515436 21.99968630384646 0  -3.00665583249979 21.99941739914972 0  -2.004322528181343 21.99942021405057 0  -1.002108544139412 21.99941751619087 0  4.676817579640975e-05 21.99940981165372 0  1.002202214145288 21.99939702429956 0  2.004416575252507 21.99937850664077 0  3.006750429821358 21.99935302887794 0  4.006830064119788 21.99963035668985 0  5.006748717284336 21.99990821794077 0  6.004909308321615 21.9999261416965 0  7.00320169186042 21.99994852625709 0  8.001579752778705 21.99997362427134 0  9 22 0  -9 24 0  -8.001342969219136 24.00006027678453 0  -7.002722331083332 24.00012449886106 0  -6.004175499572499 24.00019677572334 0  -5.005741883012965 24.00028155517445 0  -4.005811641143811 23.999680232874 0  -3.00574292892796 23.99907833577111 0  -2.003730062674886 23.99910570076786 0  -1.001819795904803 23.99911811614684 0  3.976632636649519e-05 23.99911624748627 0  1.001899118603994 23.99910013184975 0  2.003808735360274 23.99906918088103 0  3.00582045399591 23.9990221761941 0  4.005887074631919 23.9996318653473 0  5.005815871004908 24.0002418887308 0  6.004231639165361 24.00016794036807 0  7.002760051747834 24.00010571072088 0  8.001361912147427 24.00005101359232 0  9 24 0  -9 26 0  -8.000983361593358 26.00012044909932 0  -7.001993247535184 26.00024648776916 0  -6.003056898961614 26.00038387281279 0  -5.004202880516631 26.0005387053454 0  -4.004254309111507 25.99967159793125 0  -3.004204763913203 25.99880405563917 0  -2.002729532828549 25.99885076558034 0  -1.001329290517307 25.99887563301509 0  3.370371863662008e-05 25.99887944870017 0  1.00139623458546 25.99886235168654 0  2.002795066464548 25.99882383011078 0  3.004267879563539 25.99876271909131 0  4.004314167143782 25.99963621734628 0  5.004260592726814 26.00050988895466 0  6.003101276594303 26.00036286617092 0  7.002023337656018 26.0002327716232 0  8.000998551914442 26.00011367736567 0  9 26 0  -9 28 0  -8.000516841784005 28.00015827763503 0  -7.001047616361502 28.0003230993862 0  -6.001606656155702 28.00050117907821 0  -5.002208939100819 28.00069957458445 0  -4.002237125794072 27.99966124744099 0  -3.002211902269742 27.99862270136046 0  -2.001431341234622 27.99868297004049 0  -1.000690830760116 27.99871712246971 0  2.959677975193663e-05 27.99872606104338 0  1.000749398144335 27.99871002361624 0  2.001488007730345 27.99866858227974 0  3.002265321527787 27.99860064212134 0  4.002286585841235 27.99964247933272 0  5.002255841875543 28.00068440419775 0  6.001643219282541 28.00049009728501 0  7.00107263686718 28.00031585204512 0  8.00052954060
[...]
<PointData  Scalars="f_44-1"> 
<DataArray  type="Float64"  Name="f_44-1"  format="ascii">1.3129550186625064e-03  1.0018337791329308e-04  7.0388513244546721e-05  1.7979500010960981e-04  -1.5941463185200776e-03  0.0000000000000000e+00  0.0000000000000000e+00  0.0000000000000000e+00  0.0000000000000000e+00  0.0000000000000000e+00  0.0000000000000000e+00  0.0000000000000000e+00  0.0000000000000000e+00  0.0000000000000000e+00  1.3312803256823121e-03  9.9970740311270870e-05  7.0996443975168176e-05  1.7835598131375196e-04  -1.6250066811643433e-03  6.6773178424320484e-02  6.6831803054666641e-02  6.6792199586501053e-02  6.6614034072258327e-02  6.6526170663940093e-02  0.0000000000000000e+00  0.0000000000000000e+00  0.0000000000000000e+00  0.0000000000000000e+00  0.0000000000000000e+00  0.0000000000000000e+00  0.0000000000000000e+00  0.0000000000000000e+00  0.0000000000000000e+00  6.6967633330418885e-02  6.7026244433220999e-02  6.6985090923387225e-02  6.6804586055062953e-02  6.6716560547073825e-02  1.3356234875714892e-01  1.3355669614634530e-01  1.3352017051679266e-01  1.3350508811155895e-01  1.3352526980091611e-01  0.0000000000000000e+00  0.0000000000000000e+00  0.0000000000000000e+00  0.0000000000000000e+00  0.0000000000000000e+00  0.0000000000000000e+00  0.0000000000000000e+00  0.0000000000000000e+00  0.0000000000000000e+00  1.3393800893942143e-01  1.3393515797833341e-01  1.3390184595088966e-01  1.3389085680442744e-01  1.3391807074287995e-01  2.0033577782570014e-01  2.0032959211580093e-01  2.0032314000165757e-01  2.0031558848999667e-01  2.0029444688421133e-01  0.0000000000000000e+00  0.0000000000000000e+00  0.0000000000000000e+00  0.0000000000000000e+00  0.0000000000000000e+00  0.0000000000000000e+00  0.0000000000000000e+00  0.0000000000000000e+00  0.0000000000000000e+00  2.0090932449676530e-01  2.0089030317295722e-01  2.0088352112362726e-01  2.0088273598270390e-01  2.0087957401028320e-01  2.6714894275453460e-01  2.6713988093165897e-01  2.6712462060031139e-01  2.6708400198165505e-01  2.6704913251412860e-01  0.0000000000000000e+00  0.0000000000000000e+00  0.0000000000000000e+00  0.0000000000000000e+00  0.0000000000000000e+00  0.0000000000000000e+00  0.0000000000000000e+00  0.0000000000000000e+00  0.0000000000000000e+00  2.6784239828949080e-01  2.6784475020171439e-01  2.6784016901477381e-01  2.6784207123392434e-01  2.6784492451729019e-01  3.3398845306596814e-01  3.3397520333894110e-01  3.3396122070829559e-01  3.3396415204007068e-01  3.3402117655206631e-01  0.0000000000000000e+00  1.0355579945591067e+00  1.0354682287947277e+00  1.0356179641680829e+00  1.0356397326547024e+00  1.0356315933954368e+00  1.0354949300839549e+00  1.0347639755873181e+00  0.0000000000000000e+00  3.3476068090019406e-01  3.3476216258629921e-01  3.3477185115815139e-01  3.3479278752906616e-01  3.3480374670547186e-01  4.0085765812761587e-01  4.0083298732079670e-01  4.0078393621447911e-01  4.0071491904766871e-01  4.0058094463671656e-01  0.0000000000000000e+00  1.0357262694367186e+00  1.0357459068360775e+00  1.0357472417769518e+00  1.0357227208575783e+00  1.0357207412329985e+00  1.0357203286702545e+00  1.0358875442686579e+00  0.0000000000000000e+00  4.0149630980307999e-01  4.0159893676081476e-01  4.0170997429321559e-01  4.0177730762267860e-01  4.0180224494857586e-01  4.6784450716060050e-01  4.6780587885614128e-01  4.6770775218600896e-01  4.6754811218845077e-01  4.6731275181837595e-01  0.0000000000000000e+00  1.0362253939723070e+00  1.0359911545448046e+00  1.0358315754267775e+00  1.0357735586645880e+00  1.0357950093063359e+00  1.0358903245624675e+00  1.0360625756891015e+00  0.0000000000000000e+00  4.6832458826842505e-01  4.6859481178522705e-01  4.6879277823340676e-01  4.6891042124521920e-01  4.6895041718038027e-01  5.3507897151201100e-01  5.3502827975974754e-01  5.3488449050752329e-01  5.3464393406749122e-01  5.3428625329449264e-01  0.0000000000000000e+00  1.0361236067318895e+00  1.0358047406166111e+00  1.0356068741893196e+00  1.0355301340943408e+00  1.0355704567896216e+00  1.0357279242752682e+00  1.0360205528384414e+00  0.0000000000000000e+00  5.3552513191590612e-01  5.3590314406440376e-01  5.3617539134036907e-01  5.3633600959848937e-01  5.3638753541321305e-01  6.0268526817335710e-01  6.0262729437572149e-01  6.0245266386549701e-01  6.0215727800766838e-01  6.0172330195783719e-01  0.0000000000000000e+00  1.0355490784190604e+00  1.0351460128340744e+00  1.0349006975297563e+00  1.0348095093335308e+00  1.0348696294549777e+00  1.0350815974816743e+00  1.0354613668367294e+00  0.0000000000000000e+00  6.0324718397160815e-01  6.0368311273877673e-01  6.0399077885659436e-01  6.0417262898656920e-01  6.0422942206566366e-01  6.7074986440838913e-01  6.7069069747517085e-01  6.7050520216746479e-01  6.7018999052143824e-01  6.6972995312474193e-01  0.0000000000000000e+00  1.0342930950057314e+00  1.0338518354174515e+00  1.0335885708546044e+00  1.0334936240685353e+00  1.0335651894404807e+00  1.0338050676158630e+00  1.0342249280712374e+00  0.0000000000000000e+00  6.7154358356907617e-01  6.7199120542612034e-01  6.7230263487620578e-01  6.7248606592952287e-01  6.7254203526565948e-01  7.3930617433963453e-01  7.3925206213097117e-01  7.3907678927884846e-01  7.3877796250727834e-01  7.3834369354676765e-01  0.0000000000000000e+00  1.0322960057163102e+00  1.0318644331826772e+00  1.0316106320517608e+00  1.0315206667194636e+00  1.0315938438760857e+00  1.0318327158046463e+00  1.0322446107514207e+00  0.0000000000000000e+00  7.4043376338588029e-01  7.4084206533208152e-01  7.4112230411147417e-01  7.4128697498626994e-01  7.4133590196139099e-01  8.0833078833824346e-01  8.0828732989535623e-01  8.0814180664429669e-01  8.0789288988179131e-01  8.0753249877647271e-01  0.0000000000000000e+00  1.0295734465086193e+00  1.0291984046007125e+00  1.0289807518704541e+00  1.0289042193992910e+00  1.0289691384853432e+00  1.0291784636327568e+00  1.0295346076571481e+00  0.0000000000000000e+00  8.0986331712811344e-01  8.1018629617667948e-01  8.1040413314303139e-01  8.1053183532783379e-01  8.1056833724633370e-01  8.7774728293966409e-01  8.7771881390236950e-01  8.7761891534531034e-01  8.7744722642326989e-01  8.7719989190920722e-01  0.0000000000000000e+00  1.0262223003511530e+00  1.0259443015735623e+00  1.0257857174631111e+00  1.0257297886253445e+00  1.0257778051166035e+00  1.0259328230556495e+00  1.0261922659129878e+00  0.0000000000000000e+00  8.7971780428993762e-01  8.7991903737083588e-01  8.8005020604146067e-01  8.8012685470135699e-01  8.8014695242270002e-01  9.4743579746840278e-01  9.4742494576218372e-01  9.4738128570135149e-01  9.4730518753210136e-01  9.4719713670890282e-01  0.0000000000000000e+00  1.0224099902726282e+00  1.0222585774248214e+00  1.0221754505988039e+00  1.0221451383264935e+00  1.0221697628063069e+00  1.0222522056312109e+00  1.0223851913197266e+00  0.0000000000000000e+00  9.4983546343594993e-01  9.4989185001714194e-01  9.4992146848400927e-01  9.4993855354581314e-01  9.4994008254222284e-01  1.0172470573966306e+00  1.0172544883828964e+00  1.0172713765811892e+00  1.0172985026616987e+00  1.0173404651693356e+00  0.0000000000000000e+00  1.0183549413792976e+00  1.0183455907816146e+00  1.0183460221109304e+00  1.0183436068599394e+00  1.0183411134993785e+00  1.0183410112136750e+00  1.0183319987167907e+00  0.0000000000000000e+00  1.0200244644327390e+00  1.0199286583082368e+00  1.0198528544191177e+00  1.0198083505801281e+00  1.0197911769833521e+00  1.0870192361597213e+00  1.0870435988406482e+00  1.0871186417591570e+00  1.0872452003214943e+00  1.0874313761216472e+00  0.0000000000000000e+00  1.0143024162614187e+00  1.0144349543541165e+00  1.0145178539833906e+00  1.0145425751412329e+00  1.0145122932285664e+00  1.0144288685912011e+00  1.0142780268504650e+00  0.0000000000000000e+00  1.0900835315494792e+00  1.0898447916530978e+00  1.0896711975996893e+00  1.0895698164898133e+00  1.0895358488405875e+00  1.1565959437508595e+00  1.1566340237168840e+00  1.1567583990938646e+00  1.1569696179587081e+00  1.1572782891419893e+00  0.0000000000000000e+00  1.0104976159133936e+00  1.0107562294462857e+00  1.0109113676632950e+00  1.0109594316241646e+00  1.0109037243331300e+00  1.0107453326997831e+00  1.0104684269074609e+00  0.0000000000000000e+00  1.1598235795556371e+00  1.1594669872813586e+00  1.1592141020233180e+00  1.1590668718848589e+00  1.1590198681002306e+00  1.2258435084098165e+00  1.2258905796353625e+00  1.2260499811952448e+00  1.2263216979610327e+00  1.2267174878541587e+00  0.0000000000000000e+00  1.0071588033693775e+00  1.0075136349188099e+00  1.0077226302600117e+00  1.0077875239720957e+00  1.0077114332145933e+00  1.0074945843268797e+00  1.0071212757467103e+00  0.0000000000000000e+00  1.2290884903521602e+00  1.2286525184160635e+00  1.2283479197930989e+00  1.2281710917418402e+00  1.2281162679764686e+00  1.2946657362384282e+00  1.2947160848126746e+00  1.2948923304963560e+00  1.2951937409017766e+00  1.2956314654206893e+00  0.0000000000000000e+00  1.0044530726180516e+00  1.0048632799012125e+00  1.0051014301469658e+00  1.0051745297832728e+00  1.0050852085303288e+00  1.0048327477559269e+00  1.0044034566346873e+00  0.0000000000000000e+00  1.2977729792342971e+00  1.2973055260155464e+00  1.2969830049344355e+00  1.2967963159967346e+00  1.2967397664635278e+00  1.3630142396457305e+00  1.3630619837972491e+00  1.3632352928194271e+00  1.3635326372019141e+00  1.3639624893569322e+00  0.0000000000000000e+00  1.0024772043136827e+00  1.0028952599053160e+00  1.0031342274449524e+00  1.0032057168845208e+00  1.0031115371296131e+00  1.0028499110256441e+00  1.0024112024388760e+00  0.0000000000000000e+00  1.3658357490181283e+00  1.3653887921634607e+00  1.3650844871714747e+00  1.3649088414483601e+00  1.3648567958717241e+00  1.4308936195996154e+00  1.4309332029849160e+00  1.4310842854468828e+00  1.4313446225506259e+00  1.4317180973868529e+00  0.0000000000000000e+00  1.0012448299548189e+00  1.0016230276993998e+00  1.0018341668138275e+00  1.0018942538530398e+00  1.0018038021060023e+00  1.0015600788306587e+00  1.0011594395418550e+00  0.0000000000000000e+00  1.4333063999799545e+00  1.4329293229847662e+00  1.4326769252172005e+00  1.4325316351483233e+00  1.4324895719283093e+00  1.4983580776793195e+00  1.4983863689464092e+00  1.4985015273260145e+00  1.4987018814214979e+00  1.4989820282250745e+00  0.0000000000000000e+00  1.0006890235594781e+00  1.0009805520758319e+00  1.0011374273095706e+00  1.0011777852715169e+00  1.0011017236852784e+00  1.0009051999668390e+00  1.0005882623332820e+00  0.0000000000000000e+00  1.5002844225404068e+00  1.5000153974184565e+00  1.4998417422251054e+00  1.4997413872800520e+00  1.4997130313702425e+00  1.5655019719471210e+00  1.5655165229672350e+00  1.5655841637704866e+00  1.5657077633514338e+00  1.5658749779432408e+00  0.0000000000000000e+00  1.0006497781778123e+00  1.0008212382321193e+00  1.0009163490849902e+00  1.0009378355558447e+00  1.0008799626959104e+00  1.0007208334157947e+00  1.0004879530345383e+00  0.0000000000000000e+00  1.5669173264504825e+00  1.5667901828405300e+00  1.5667064870702920e+00  1.5666572130625287e+00  1.5666434514459322e+00  1.6324496262806785e+00  1.6324524740482218e+00  1.6324768843104811e+00  1.6325170051740336e+00  1.6325210775546926e+00  0.0000000000000000e+00  1.0008263897311098e+00  1.0009935870567355e+00  1.0009935488349329e+00  1.0009918080417806e+00  1.0009673418068183e+00  1.0009683940243188e+00  1.0009868075213475e+00  0.0000000000000000e+00  1.6334692932740691e+00  1.6334237357014634e+00  1.6334238062858635e+00  1.6334188971700137e+00  1.6334168763960026e+00  1.6993285066297898e+00  1.6993237878508110e+00  1.6993136975575647e+00  1.6992770324265449e+00  1.6992272088686275e+00  0.0000000000000000e+00  1.0019485214098038e+00  1.0012203481025919e+00  1.0010860471899958e+00  1.0010782306354093e+00  1.0010994300517779e+00  1.0012465901130894e+00  1.0011579815533236e+00  0.0000000000000000e+00  1.6999615069662437e+00  1.7000867175606666e+00  1.7001348021875453e+00  1.7001526606196651e+00  1.7001558733467630e+00  1.7662259609960334e+00  1.7662213953337829e+00  1.7662062375057364e+00  1.7661801945959632e+00  1.7661607579588310e+00  0.0000000000000000e+00  0.0000000000000000e+00  0.0000000000000000e+00  0.0000000000000000e+00  0.0000000000000000e+00  0.0000000000000000e+00  0.0000000000000000e+00  0.0000000000000000e+00  0.0000000000000000e+00  1.7669243422476486e+00  1.7669215233052595e+00  1.7669185778864196e+00  1.7669262500461065e+00  1.7669284586327352e+00  1.8331692878553580e+00  1.8331529638524340e+00  1.8331466799098817e+00  1.8331350767647467e+00  1.8331069482822846e+00  0.0000000000000000e+00  0.0000000000000000e+00  0.0000000000000000e+00  0.0000000000000000e+00  0.0000000000000000e+00  0.0000000000000000e+00  0.0000000000000000e+00  0.0000000000000000e+00  0.0000000000000000e+00  1.8337508681344385e+00  1.8337232081732648e+00  1.8337221257597154e+00  1.8337241867762017e+00  1.8337198230699223e+00  1.9000839316581655e+00  1.9001191475917141e+00  1.9001223853770874e+00  1.9000774947198433e+00  1.9000686803336924e+00  0.0000000000000000e+00  0.0000000000000000e+00  0.0000000000000000e+00  0.0000000000000000e+00  0.0000000000000000e+00  0.0000000000000000e+00  0.0000000000000000e+00  0.0000000000000000e+00  0.0000000000000000e+00  1.9004893912051239e+00  1.9005171735825384e+00  1.9005179426880858e+00  1.9004741309640503e+00  1.9004680176555810e+00  1.9672175924271234e+00  1.9672279980462435e+00  1.9670876869856708e+00  1.9671053056783456e+00  1.9672345176851689e+00  0.0000000000000000e+00  0.0000000000000000e+00  0.0000000000000000e+00  0.0000000000000000e+00  0.0000000000000000e+00  0.0000000000000000e+00  0.0000000000000000e+00  0.0000000000000000e+00  0.0000000000000000e+00  1.9674278482351106e+00  1.9674299630616210e+00  1.9672898250178708e+00  1.9673057357941841e+00  1.9674302071120231e+00  2.0360661445392778e+00  2.0338163852810145e+00  2.0338659853270231e+00  2.0338927553818262e+00  2.0325259434080754e+00  0.0000000000000000e+00  0.0000000000000000e+00  0.0000000000000000e+00  0.0000000000000000e+00  0.0000000000000000e+00  0.0000000000000000e+00  0.0000000000000000e+00  0.0000000000000000e+00  0.0000000000000000e+00  2.0360194636914324e+00  2.0338188730027000e+00  2.0338674746112639e+00  2.0338922157481889e+00  2.0325524679052922e+00  </DataArray> 
</PointData> 
</Piece>
</UnstructuredGrid>
</VTKFile>