<?xml version="1.0"?>
<VTKFile type="UnstructuredGrid"  version="0.1"  >
<UnstructuredGrid>
<Piece  NumberOfPoints="589" NumberOfCells="1080">
<Points>
<DataArray  type="Float64"  NumberOfComponents="3"  format="ascii">-9 0 0  -8 0 0  -7 0 0  -6 0 0  -5 0 0  -4 0 0  -3 0 0  -2 0 0  -1 0 0  0 0 0  1 0 0  2 0 0  3 0 0  4 0 0  5 0 0  6 0 0  7 0 0  8 0 0  9 0 0  -9 2 0  -8.000008275580736 1.999987641573437 0  -7.00001737521685 1.999976790914046 0  -6.000029214154496 1.999968670405457 0  -5.000048151681555 1.999963809987988 0  -4.000028697056162 1.99997299344614 0  -3.000008635041805 1.999981623046737 0  -1.999998777006596 1.999989686036457 0  -0.9999969803968386 1.999996053892439 0  -2.14000532671044e-07 1.999998840846047 0  0.9999961994387481 1.999996897827423 0  1.999996803665428 1.999990686891634 0  3.000004661066621 1.999983057250367 0  4.000020740311406 1.999974860790124 0  5.000044002757037 1.999971426524288 0  6.00002659762332 1.999972715006396 0  7.000015826709087 1.999978992308489 0  8.00000755662729 1.999988638589602 0  9 2 0  -9 4 0  -8.000013254735183 3.999969252947333 0  -7.000023793264956 3.99994266187327 0  -6.000030033840001 3.999924300797979 0  -5.000032318217449 3.999918061557199 0  -4.000004065078087 3.999922272583043 0  -2.999985019301869 3.999946445155623 0  -1.999979857199771 3.999977924215262 0  -0.9999867442217844 4.000003234803706 0  -1.968007090013527e-07 4.000013427114895 0  0.9999860643576208 4.00000542778095 0  1.999978217664404 3.999983842483751 0  2.999982445841493 3.999954610039023 0  4.000000622467248 3.999925185660851 0  5.000028198439328 3.999915224266637 0  6.000026658135818 3.999925475319779 0  7.00002164983425 3.999944509651803 0  8.000012259054481 3.999970417646971 0  9 4 0  -9 6 0  -8.000029097640304 5.99993424464577 0  -7.000047403065384 5.999875616753034 0  -6.000046678349408 5.999831447612079 0  -5.000024554030162 5.999808776841356 0  -3.999969570932992 5.999844531754357 0  -2.999944433539817 5.99991930679491 0  -1.999953997780397 5.999997700012833 0  -0.9999782570044148 6.00004130748405 0  -2.829339613829585e-06 6.000050067054817 0  0.9999751001781706 6.000035887050462 0  1.999958357573454 5.999996698422866 0  2.999952262871294 5.999930505669652 0  3.99996550376071 5.999861845070783 0  5.000012557645858 5.999827787225272 0  6.000040590616823 5.999843106159371 0  7.00004500172277 5.999882536545633 0  8.00002843287456 5.999937503280089 0  9 6 0  -9 8 0  -8.000088097062884 7.999870746233636 0  -7.000147126059351 7.999750757596352 0  -6.000148916969797 7.999652621652787 0  -5.000069319096262 7.999597096873257 0  -3.999963240561813 7.999762254033547 0  -2.999982427602084 7.999956318102655 0  -2.000021868358862 8.000050969041714 0  -1.000024988517858 8.00006188216223 0  -1.104672841253031e-06 8.000065076915767 0  1.000016802700002 8.000074579290409 0  2.000009668001947 8.000034924377642 0  2.999963751541638 7.999967363471184 0  3.999948445841524 7.999800245052429 0  5.000052988048436 7.999611679882982 0  6.00014899564808 7.999664320157636 0  7.000152256222847 7.999758440247268 0  8.000092047992819 7.999874485791818 0  9 8 0  -9 10 0  -8.000263270738429 9.999770266351581 0  -7.000475696446355 9.99953860993247 0  -6.000576610254201 9.999303552843795 0  -5.000481461702844 9.999064681249637 0  -4.00031359847901 9.999597315207829 0  -3.000340444358869 10.00005532399345 0  -2.000271734754335 9.999976826803891 0  -1.00012388531757 9.999951630294344 0  -1.479443125583313e-05 9.999945475746577 0  1.000093482331446 9.999945910304886 0  2.00023757877634 9.999942891216591 0  3.00036462098112 10.00010780587544 0  4.000349028950309 9.999671662836018 0  5.000540360238922 9.999096233849679 0  6.000628177575869 9.999319778072302 0  7.000513252575543 9.999546733428538 0  8.000282934767105 9.999773651600593 0  9 10 0  -9 12 0  -8.000641371249143 11.99967764593163 0  -7.001249574407375 11.99934034888506 0  -6.001787121951066 11.99897023639339 0  -5.002207481354256 11.99854238890246 0  -4.002122068239396 11.99951242960959 0  -3.002199245903066 12.00047271410082 0  -2.001506269079796 12.00035682367867 0  -1.000736724034709 12.00029433647373 0  6.161839520843657e-05 12.00028255956559 0  1.000867559812567 12.0003235231126 0  2.001663184449864 12.00042901432879 0  3.002412721804663 12.00062851497971 0  4.002329818131531 11.99958249498453 0  5.002384845790369 11.99852776528973 0  6.001917289437068 11.99896196718677 0  7.001335299550096 11.99933540626433 0  8.000683970434325 11.99967523968719 0  9 12 0  -9 14 0  -8.00115120998656 13.99964498742192 0  -7.002304579558052 13.99927367845205 0  -6.003463828459727 13.99886834015863 0  -5.004636630758445 13.99840842206153 0  -4.004649213488655 13.99954060980553 0  -3.004655789243187 14.0006871269072 0  -2.00304884098331 14.00052355959161 0  -1.001465519424404 14.00043451224252 0  0.0001078683729186861 14.00040896838657 0  1.001684295487771 14.00044337879769 0  2.003275769425669 14.00053960958836 0  3.004891762856153 14.00070288515501 0  4.004904240096931 13.99954086966228 0  5.004911323989133 13.99838602956461 0  6.003661851772282 13.9988479552816 0  7.002433365463371 13.99925894896853 0  8.00121473652935 13.99963736527235 0  9 14 0  -9 16 0  -8.001651137739541 15.99967764055277 0  -7.003333970927266 15.99934339246213 0  -6.005082946276938 15.99898516505006 0  -5.006938097847922 15.99859065231873 0  -4.007004577048184 15.99955442996518 0  -3.006941837058922 16.00051305170991 0  -2.004500211367853 16.00039324301252 0  -1.002156020911888 16.00032150218926 0  0.0001420310537453233 16.00029630889895 0  1.002442404597714 16.00031669070142 0  2.004793556884044 16.00038276314636 0  3.007247040489518 16.00049548318855 0  4.007317170543921 15.99951019745552 0  5.007255740220067 15.9985241494975 0  6.005318611756386 15.9989381803895 0  7.003489662012352 15.99931315755648 0  8.001728535677438 15.99966280519063 0  9 16 0  -9 18 0  -8.002022940696719 17.99975788082167 0  -7.00409639322482 17.99950915563001 0  -6.006273496641703 17.99924734456918 0  -5.008612605491406 17.99896624289665 0  -4.008712612405159 17.99955728123356 0  -3.008616195210876 18.00014753085123 0  -2.005566072635629 18.00007149795161 0  -1.002663942770117 18.00002317646983 0  0.0001668455621110911 18.0000022142002 0  1.002999220635807 18.0000080864709 0  2.005906007425726 18.00004013700893 0  3.008963499211222 18.00009743297351 0  4.009065494292258 17.99948741090033 0  5.008968316650352 17.99887916211271 0  6.006538251725513 17.99918494960503 0  7.004271896497119 17.9994688849326 0  8.002110388847298 17.99973812966026 0  9 18 0  -9 20 0  -8.002191456335028 19.99986452389363 0  -7.004441756283597 19.99972729406431 0  -6.006811984629705 19.99958675860662 0  -5.00936770504267 19.99944175953034 0  -4.009481593056258 19.99955704265163 0  -3.0093690760636 19.9996714300663 0  -2.006044738664093 19.99963952482566 0  -1.002888756537037 19.99961605312399 0  0.0001852318186404833 19.99960141904128 0  1.003260465304484 19.99959538605339 0  2.006420150309033 19.99959709978593 0  3.009750561688869 19.99960503327735 0  4.009865428210953 19.99947616551615 0  5.009752075332263 19.99934848023743 0  6.007098526140081 19.99951921831412 0  7.004631951666713 19.99968341759345 0  8.002286303650932 19.99984293047813 0  9.000000000000224 19.9999999999934 0  -9 22 0  -8.00212345113597 21.99997815800754 0  -7.004304964310478 21.99995864940702 0  -6.006604416325869 21.99994403164767 0  -5.009085294755708 21.99993731472899 0  -4.009196668693206 21.99955232922118 0  -3.009086223482781 21.99916631936605 0  -2.005854821348759 21.99917402051826 0  -1.002787869226084 21.99917380252824 0  0.0001986408198740423 21.99916644329523 0  1.003186183597923 21.99915190539723 0  2.006256221370696 21.99912935171403 0  3.009492727479806 21.99909713070592 0  4.009603142683558 21.99947262517136 0  5.00949008022966 21.99984874113179 0  6.006906555388102 21.9998796243195 0  7.004505688561344 21.99991666918344 0  8.00222359727417 21.99995745537136 0  9 22 0  -9 24 0  -8.001822018066493 24.00008245959633 0  -7.003693920330722 24.00017044054272 0  -6.005666988904203 24.00026969230746 0  -5.007795209241089 24.00038643714163 0  -4.007891190697254 23.99954330705159 0  -3.007797035147397 23.99869922758572 0  -2.005011801661249 23.99874000204229 0  -1.002367378931076 23.99875993747898 0  0.0002080365339269938 23.99876000138961 0  1.002784334754248 23.99874029384722 0  2.005431402644589 23.99870005145058 0  3.008221037034715 23.99863764176726 0  4.008313247284494 23.99947465825857 0  5.008213952438522 24.00031197475181 0  6.005979792116109 24.00021535071086 0  7.003901846192275 24.00013492984502 0  8.001925790181101 24.00006491987125 0  9 24 0  -9 26 0  -8.001319703965208 26.00016470027353 0  -7.002675550226694 26.00033716280434 0  -6.004104673600196 26.00052537975981 0  -5.005645981262184 26.00073782073164 0  -4.005716776749393 25.99953050843022 0  -3.005649572826952 25.99832243959518 0  -2.003610064648206 25.99838891228094 0  -1.00167291097804 25.99842513247997 0  0.0002140961655770813 25.99843221415736 0  1.002101868206596 25.99841037913345 0  2.004041314942125 25.99835895797072 0  3.006084640802873 25.99827638756426 0  4.006148519392873 25.9994803283875 0  5.00607323427782 26.00068434195078 0  6.004424045200295 26.00048625921768 0  7.002887943763335 26.00031155317713 0  8.001425735644732 26.00015203642445 0  9 26 0  -9 28 0  -8.000671257486436 28.00021592000536 0  -7.001361221810846 28.0004408847419 0  -6.002089168166925 28.00068417141026 0  -5.0028752143639 28.00095552999313 0  -4.002914118954754 27.99951510244969 0  -3.002880820388952 27.99807425353481 0  -2.001803345602317 27.99815838418387 0  -1.000779866141288 27.99820642714207 0  0.0002172935035686701 27.99821963082534 0  1.001215125847911 27.9981983348058 0  2.002240618520752 27.99814196995919 0  3.003321431838253 27.99804905740669 0  4.003350562943505 27.99948832655668 0  5.003306470718043 28.00092758671877 0  6.002411704269565 28.00066368708218 0  7.001575804615602 28.00042745313726 0  8.00077841051
[...]
<PointData  Scalars="f_44-1"> 
<DataArray  type="Float64"  Name="f_44-1"  format="ascii">1.6023067762333143e-03  3.7127824428429108e-05  5.2232223703957489e-05  1.4030223494677680e-04  -1.7230583470949825e-03  0.0000000000000000e+00  0.0000000000000000e+00  0.0000000000000000e+00  0.0000000000000000e+00  0.0000000000000000e+00  0.0000000000000000e+00  0.0000000000000000e+00  0.0000000000000000e+00  0.0000000000000000e+00  1.6138796383546336e-03  3.7130511698693304e-05  5.3123537458309641e-05  1.3463782750777772e-04  -1.7451394093703336e-03  9.5795498572829901e-02  9.5827772046898907e-02  9.5691039469245343e-02  9.5403705854528315e-02  9.5269267899429452e-02  0.0000000000000000e+00  0.0000000000000000e+00  0.0000000000000000e+00  0.0000000000000000e+00  0.0000000000000000e+00  0.0000000000000000e+00  0.0000000000000000e+00  0.0000000000000000e+00  0.0000000000000000e+00  9.5854953000022711e-02  9.5883605150048234e-02  9.5741811498749316e-02  9.5451558096693409e-02  9.5313585373002108e-02  1.9129643902997268e-01  1.9128235081737158e-01  1.9123755625912200e-01  1.9120464682538771e-01  1.9122219993307868e-01  0.0000000000000000e+00  0.0000000000000000e+00  0.0000000000000000e+00  0.0000000000000000e+00  0.0000000000000000e+00  0.0000000000000000e+00  0.0000000000000000e+00  0.0000000000000000e+00  0.0000000000000000e+00  1.9137886276302143e-01  1.9138035970159090e-01  1.9134913461524597e-01  1.9132191070628715e-01  1.9134148760897229e-01  2.8690882773810156e-01  2.8690470243532762e-01  2.8690198469209349e-01  2.8690088083960319e-01  2.8688549040400657e-01  0.0000000000000000e+00  0.0000000000000000e+00  0.0000000000000000e+00  0.0000000000000000e+00  0.0000000000000000e+00  0.0000000000000000e+00  0.0000000000000000e+00  0.0000000000000000e+00  0.0000000000000000e+00  2.8705441773195856e-01  2.8704830095640860e-01  2.8705201151098519e-01  2.8705759580147189e-01  2.8706242595603754e-01  3.8257402998774731e-01  3.8255897387829091e-01  3.8251777057897146e-01  3.8242323107112774e-01  3.8235820123976394e-01  0.0000000000000000e+00  0.0000000000000000e+00  0.0000000000000000e+00  0.0000000000000000e+00  0.0000000000000000e+00  0.0000000000000000e+00  0.0000000000000000e+00  0.0000000000000000e+00  0.0000000000000000e+00  3.8269475763595384e-01  3.8274556150012945e-01  3.8276294352439511e-01  3.8277719548915584e-01  3.8278678079486234e-01  4.7831134033514933e-01  4.7829418797343798e-01  4.7826629915761915e-01  4.7825876958104102e-01  4.7827734062900984e-01  0.0000000000000000e+00  1.4589210408161786e+00  1.4588149399642298e+00  1.4589352235161797e+00  1.4589276580842439e+00  1.4589475601264992e+00  1.4588763692981388e+00  1.4580703118271936e+00  0.0000000000000000e+00  4.7845885154131457e-01  4.7847086166944169e-01  4.7848586233626716e-01  4.7851289684695214e-01  4.7852876461306781e-01  5.7410212996170851e-01  5.7407684279142024e-01  5.7402472395610893e-01  5.7395392584251415e-01  5.7380220831574713e-01  0.0000000000000000e+00  1.4589380133261196e+00  1.4589415676886555e+00  1.4589407854424292e+00  1.4589199925822711e+00  1.4589295122811723e+00  1.4589275978462206e+00  1.4591275185774846e+00  0.0000000000000000e+00  5.7403344563751935e-01  5.7413236464781070e-01  5.7423643724548878e-01  5.7429361306333016e-01  5.7431885920158365e-01  6.7000586416400343e-01  6.6997328383172028e-01  6.6989079256343687e-01  6.6976047912363834e-01  6.6955655585651630e-01  0.0000000000000000e+00  1.4591805333381127e+00  1.4590159092457320e+00  1.4588963095494814e+00  1.4588580476607580e+00  1.4588769412342597e+00  1.4589502758848241e+00  1.4590672992875686e+00  0.0000000000000000e+00  6.6972849405965962e-01  6.6995162747067460e-01  6.7010704598092519e-01  6.7020245335877848e-01  6.7023776191695095e-01  7.6611060732855707e-01  7.6607383905572046e-01  7.6596581742906023e-01  7.6578606874588795e-01  7.6551228592808174e-01  0.0000000000000000e+00  1.4589655830269432e+00  1.4587561145159245e+00  1.4586276960187523e+00  1.4585809342951723e+00  1.4586113519964194e+00  1.4587195052403916e+00  1.4589242227221593e+00  0.0000000000000000e+00  7.6571099990772806e-01  7.6601234438635846e-01  7.6622582515875781e-01  7.6634969338956249e-01  7.6638969119553213e-01  8.6249503800787730e-01  8.6245833433925623e-01  8.6233786720081884e-01  8.6213253772796195e-01  8.6182786931466049e-01  0.0000000000000000e+00  1.4584541637159791e+00  1.4581957410923327e+00  1.4580383711877594e+00  1.4579822001330380e+00  1.4580249897344775e+00  1.4581668597347164e+00  1.4584192633772106e+00  0.0000000000000000e+00  8.6213909400570499e-01  8.6246096031297115e-01  8.6268702938551056e-01  8.6281871246749597e-01  8.6285824891352825e-01  9.5920407634520755e-01  9.5917167932019309e-01  9.5905412951411428e-01  9.5885097122543050e-01  9.5855478086761947e-01  0.0000000000000000e+00  1.4574937427891208e+00  1.4572174605701991e+00  1.4570539295860661e+00  1.4569977045268039e+00  1.4570471177893174e+00  1.4572035633183638e+00  1.4574741601129844e+00  0.0000000000000000e+00  9.5900237261000687e-01  9.5930952885213028e-01  9.5952265161360206e-01  9.5964575408012642e-01  9.5968004643827054e-01  1.0562402414838039e+00  1.0562155433321510e+00  1.0561148326936878e+00  1.0559385068449365e+00  1.0556847321775245e+00  0.0000000000000000e+00  1.4560669236871351e+00  1.4558021690822109e+00  1.4556485537993247e+00  1.4555967703641335e+00  1.4556465553640023e+00  1.4558000833103211e+00  1.4560602330112962e+00  0.0000000000000000e+00  1.0562816305630160e+00  1.0565394139449988e+00  1.0567157535330902e+00  1.0568169541108525e+00  1.0568426359998622e+00  1.1535657842653244e+00  1.1535510013742034e+00  1.1534780131699423e+00  1.1533479327313767e+00  1.1531633693775110e+00  0.0000000000000000e+00  1.4541928804801134e+00  1.4539667798517151e+00  1.4538383425566603e+00  1.4537959016162831e+00  1.4538402616284281e+00  1.4539740539157533e+00  1.4541958994434143e+00  0.0000000000000000e+00  1.1539077258645731e+00  1.1540894562211221e+00  1.1542106318904177e+00  1.1542796679304461e+00  1.1542944865135156e+00  1.2511100497578318e+00  1.2511061143061641e+00  1.2510679469437493e+00  1.2509971072318267e+00  1.2508997040228897e+00  0.0000000000000000e+00  1.4519379240073704e+00  1.4517729926159959e+00  1.4516822690594353e+00  1.4516530443922231e+00  1.4516869868431517e+00  1.4517869710562850e+00  1.4519478091684832e+00  0.0000000000000000e+00  1.2517761520713873e+00  1.2518646039359551e+00  1.2519192648027817e+00  1.2519499147087920e+00  1.2519529856510139e+00  1.3487793968039976e+00  1.3487859847748280e+00  1.3487856551564976e+00  1.3487800915715298e+00  1.3487779911524982e+00  0.0000000000000000e+00  1.4494066969863140e+00  1.4493188242404702e+00  1.4492743921914890e+00  1.4492609369904146e+00  1.4492807667786756e+00  1.4493367877555172e+00  1.4494205833635929e+00  0.0000000000000000e+00  1.3497606328361464e+00  1.3497486523243138e+00  1.3497326584884257e+00  1.3497229223733778e+00  1.3497146796238979e+00  1.4464683786486867e+00  1.4464840380821076e+00  1.4465205230205143e+00  1.4465793336089745e+00  1.4466708714153507e+00  0.0000000000000000e+00  1.4467306817874017e+00  1.4467280247308141e+00  1.4467338917419716e+00  1.4467372477459790e+00  1.4467407994587431e+00  1.4467472737376763e+00  1.4467457863669784e+00  0.0000000000000000e+00  1.4477259428471645e+00  1.4476164364206194e+00  1.4475327761522603e+00  1.4474847594479598e+00  1.4474668159146826e+00  1.5440710666272759e+00  1.5440934192462492e+00  1.5441619771191015e+00  1.5442778272448250e+00  1.5444521508609526e+00  0.0000000000000000e+00  1.4440554336635352e+00  1.4441378927392141e+00  1.4441932000453281e+00  1.4442127837144938e+00  1.4441995222716917e+00  1.4441557449510063e+00  1.4440690381933181e+00  0.0000000000000000e+00  1.5455410045558828e+00  1.5453462227369894e+00  1.5452044108773504e+00  1.5451239359743769e+00  1.5450988648741943e+00  1.6414917144491672e+00  1.6415177242758745e+00  1.6416104692973110e+00  1.6417704950103038e+00  1.6420087363211882e+00  0.0000000000000000e+00  1.4415268212765553e+00  1.4416860406812670e+00  1.4417850800014167e+00  1.4418186993260731e+00  1.4417897162419469e+00  1.4416998374953618e+00  1.4415362371130542e+00  0.0000000000000000e+00  1.6430908531240600e+00  1.6428311324668667e+00  1.6426462261243047e+00  1.6425422138438071e+00  1.6425132647476743e+00  1.7386540721371500e+00  1.7386803962382831e+00  1.7387870550827849e+00  1.7389740782141079e+00  1.7392510264424448e+00  0.0000000000000000e+00  1.4392771224569669e+00  1.4394970409358503e+00  1.4396296141348690e+00  1.4396735712323419e+00  1.4396314544410380e+00  1.4395041305997820e+00  1.4392796494570019e+00  0.0000000000000000e+00  1.7402870871777325e+00  1.7399890749072777e+00  1.7397803116253827e+00  1.7396639362870523e+00  1.7396346987527214e+00  1.8355086731059176e+00  1.8355318670906653e+00  1.8356407268918578e+00  1.8358350876611023e+00  1.8361215628540593e+00  0.0000000000000000e+00  1.4374117935438488e+00  1.4376697836176902e+00  1.4378218736542423e+00  1.4378712051641220e+00  1.4378198376071634e+00  1.4376675871405493e+00  1.4374047754223795e+00  0.0000000000000000e+00  1.8370763562493639e+00  1.8367705998702604e+00  1.8365596409354350e+00  1.8364432932625929e+00  1.8364173163477224e+00  1.9320379826773175e+00  1.9320554077857677e+00  1.9321551042840341e+00  1.9323366922666700e+00  1.9326022621548662e+00  0.0000000000000000e+00  1.4359980385088755e+00  1.4362663966033877e+00  1.4364213367383472e+00  1.4364703097519276e+00  1.4364145709731426e+00  1.4362525262167789e+00  1.4359784258943591e+00  0.0000000000000000e+00  1.9334460088862879e+00  1.9331640586406695e+00  1.9329730020404574e+00  1.9328689006181978e+00  1.9328492382620837e+00  2.0282557567616415e+00  2.0282649266778385e+00  2.0283445807417060e+00  2.0284948920356745e+00  2.0287112281520816e+00  0.0000000000000000e+00  1.4350542348913149e+00  1.4353045831177049e+00  1.4354451219415103e+00  1.4354875156385147e+00  1.4354317686979483e+00  1.4352757717351172e+00  1.4350195751062966e+00  0.0000000000000000e+00  2.0294265374294960e+00  2.0291986345075759e+00  2.0290463132630139e+00  2.0289649294042507e+00  2.0289535945841441e+00  2.1242094315413804e+00  2.1242119718523238e+00  2.1242657195968149e+00  2.1243706672997771e+00  2.1245140070215478e+00  0.0000000000000000e+00  1.4345512358229286e+00  1.4347543952448973e+00  1.4348615269296920e+00  1.4348916728795653e+00  1.4348453788460498e+00  1.4347180860588691e+00  1.4345104355071006e+00  0.0000000000000000e+00  2.1250997370876039e+00  2.1249386451010674e+00  2.1248397971167567e+00  2.1247878461217682e+00  2.1247854169283751e+00  2.2199596458469699e+00  2.2199535859145674e+00  2.2199794816538958e+00  2.2200566124942664e+00  2.2201518462407717e+00  0.0000000000000000e+00  1.4344107039269107e+00  1.4345263445655512e+00  1.4345992156875806e+00  1.4346178772149909e+00  1.4345794506428255e+00  1.4344598138653013e+00  1.4342965738615741e+00  0.0000000000000000e+00  2.2205345588931689e+00  2.2204813661473284e+00  2.2204389947410781e+00  2.2204190332136564e+00  2.2204239442286102e+00  2.3155863726462238e+00  2.3155785324580114e+00  2.3155879912411490e+00  2.3156057884443420e+00  2.3155644151660395e+00  0.0000000000000000e+00  1.4343515766751380e+00  1.4345517744043295e+00  1.4345501821140867e+00  1.4345598063103702e+00  1.4345389348293882e+00  1.4345377656110729e+00  1.4345396089160600e+00  0.0000000000000000e+00  2.3159868108654016e+00  2.3159337060254312e+00  2.3159446664965953e+00  2.3159507584416570e+00  2.3159605343217375e+00  2.4111716482284131e+00  2.4111604585039359e+00  2.4111422720870483e+00  2.4110875559632543e+00  2.4110450625886242e+00  0.0000000000000000e+00  1.4354084037324264e+00  1.4346050584281436e+00  1.4345361274176138e+00  1.4345561882630724e+00  1.4345483946557038e+00  1.4346666494197151e+00  1.4345619185402063e+00  0.0000000000000000e+00  2.4112278134051195e+00  2.4113832870893774e+00  2.4114438899584809e+00  2.4114737753170186e+00  2.4114844964421480e+00  2.5067777496618979e+00  2.5067813207475447e+00  2.5067591297283633e+00  2.5067320244522060e+00  2.5067295108736491e+00  0.0000000000000000e+00  0.0000000000000000e+00  0.0000000000000000e+00  0.0000000000000000e+00  0.0000000000000000e+00  0.0000000000000000e+00  0.0000000000000000e+00  0.0000000000000000e+00  0.0000000000000000e+00  2.5069833346137762e+00  2.5070092208851329e+00  2.5070281199987465e+00  2.5070493702856118e+00  2.5070642989933822e+00  2.6024872888099972e+00  2.6024475260471545e+00  2.6024452195506291e+00  2.6024503290322056e+00  2.6024135273832472e+00  0.0000000000000000e+00  0.0000000000000000e+00  0.0000000000000000e+00  0.0000000000000000e+00  0.0000000000000000e+00  0.0000000000000000e+00  0.0000000000000000e+00  0.0000000000000000e+00  0.0000000000000000e+00  2.6027291622224142e+00  2.6026803255621314e+00  2.6026908606821237e+00  2.6027147292135249e+00  2.6027031046166123e+00  2.6979961698993833e+00  2.6980211350868410e+00  2.6980561778957464e+00  2.6979765067255577e+00  2.6979476566304967e+00  0.0000000000000000e+00  0.0000000000000000e+00  0.0000000000000000e+00  0.0000000000000000e+00  0.0000000000000000e+00  0.0000000000000000e+00  0.0000000000000000e+00  0.0000000000000000e+00  0.0000000000000000e+00  2.6981807858474420e+00  2.6982035324714859e+00  2.6982359165958192e+00  2.6981594230729362e+00  2.6981370940209346e+00  2.7936364561095588e+00  2.7940007286717274e+00  2.7940105183677937e+00  2.7942164872903432e+00  2.7946251177805892e+00  0.0000000000000000e+00  0.0000000000000000e+00  0.0000000000000000e+00  0.0000000000000000e+00  0.0000000000000000e+00  0.0000000000000000e+00  0.0000000000000000e+00  0.0000000000000000e+00  0.0000000000000000e+00  2.7937721833757370e+00  2.7941069407655750e+00  2.7941049605541961e+00  2.7942977318341291e+00  2.7946876183833389e+00  2.8930746141397408e+00  2.8892624943054819e+00  2.8890283603350975e+00  2.8893524759444262e+00  2.8872170571571640e+00  0.0000000000000000e+00  0.0000000000000000e+00  0.0000000000000000e+00  0.0000000000000000e+00  0.0000000000000000e+00  0.0000000000000000e+00  0.0000000000000000e+00  0.0000000000000000e+00  0.0000000000000000e+00  2.8930278586447828e+00  2.8892692886570024e+00  2.8890318486134627e+00  2.8893515006685817e+00  2.8872446894157329e+00  </DataArray> 
</PointData> 
</Piece>
</UnstructuredGrid>
</VTKFile>