<?xml version="1.0"?>
<VTKFile type="UnstructuredGrid"  version="0.1"  >
<UnstructuredGrid>
<Piece  NumberOfPoints="589" NumberOfCells="1080">
<Points>
<DataArray  type="Float64"  NumberOfComponents="3"  format="ascii">-9 0 0  -8 0 0  -7 0 0  -6 0 0  -5 0 0  -4 0 0  -3 0 0  -2 0 0  -1 0 0  0 0 0  1 0 0  2 0 0  3 0 0  4 0 0  5 0 0  6 0 0  7 0 0  8 0 0  9 0 0  -9 2 0  -8.000007813922529 1.999988438174869 0  -7.000016398909582 1.999978279165549 0  -6.000027544757841 1.999970659371178 0  -5.000045323584516 1.999966068809531 0  -4.000027108429993 1.999974713554471 0  -3.000008324816446 1.999982791397454 0  -1.999999076510551 1.99999032019587 0  -0.9999973497470286 1.999996267686824 0  -3.202251244919583e-07 1.999998880768815 0  0.9999963648157282 1.99999709569892 0  1.99999692819892 1.999991348112354 0  3.000004210537655 1.999984293444498 0  4.000019096063808 1.999976742266647 0  5.000040597399691 1.999973670284534 0  6.000024490086141 1.999974813538564 0  7.000014553190143 1.999980590722856 0  8.000006944083834 1.999989498410265 0  9 2 0  -9 4 0  -8.000012543403168 3.999971265845185 0  -7.000022554401571 3.999946402038581 0  -6.000028557503333 3.999929202118929 0  -5.000030868115931 3.999923289007906 0  -4.000004483936796 3.999927285056236 0  -2.999986685665249 3.999949855855975 0  -1.999981821709683 3.999979225257593 0  -0.999988182598862 4.000002839966517 0  -6.63665515477556e-07 4.000012377699621 0  0.999986578154218 4.00000500057249 0  1.999979283268905 3.999985006625423 0  2.999983190440481 3.999957934295022 0  4.000000033041506 3.999930736920761 0  5.000025589542931 3.999921701599605 0  6.000024298309402 3.99993109185273 0  7.000019795011307 3.999948660243043 0  8.000011227756341 3.99997262205148 0  9 4 0  -9 6 0  -8.00002740156267 5.999938615805599 0  -7.000044741418687 5.999883872762825 0  -6.000044340244759 5.999842600888549 0  -5.000023992652595 5.999821354184746 0  -3.999972742323223 5.999854752423929 0  -2.999949301866336 5.999924483106767 0  -1.99995820143579 5.999997562832192 0  -0.9999807769811978 6.000038201788048 0  -3.61912457848575e-06 6.00004639764349 0  0.9999758916749258 6.000033269556725 0  1.999960364581148 5.999996938519288 0  2.999954713766996 5.99993557442199 0  3.99996699968801 5.999871971801451 0  5.000010681924656 5.99984055603945 0  6.000036954764708 5.999854660748496 0  7.00004129167877 5.999891159696237 0  8.000026151980022 5.999942084566499 0  9 6 0  -9 8 0  -8.000082496191517 7.999879418067017 0  -7.000137886171474 7.99976747698868 0  -6.000139905002762 7.999675916895422 0  -5.000066048656136 7.999624098186271 0  -3.999967190402896 7.999778112926295 0  -2.999985164501811 7.999959045303559 0  -2.000021996959718 8.000047230165217 0  -1.000024937484409 8.000057318210514 0  -2.680255777846847e-06 8.000060255101426 0  1.000014055368306 8.000069081028494 0  2.000007513947349 8.000032339550641 0  2.999964940667479 7.999969722479967 0  3.999950800878348 7.999814728859531 0  5.000047900160729 7.9996398528211 0  6.000137342060422 7.999688677630561 0  7.000140680003407 7.999775974546814 0  8.00008511262314 7.999883599273606 0  9 8 0  -9 10 0  -8.000245930619412 9.999785725485049 0  -7.000444424629285 9.999569663363435 0  -6.000538883581091 9.999350442353288 0  -5.000450442636631 9.999127683624479 0  -4.000293940750312 9.999624472552689 0  -3.000319146180779 10.00005163005987 0  -2.000255211009511 9.999978193701965 0  -1.000117423643458 9.999954626729371 0  -1.585412509570314e-05 9.99994887778924 0  1.000084881979527 9.999949312201819 0  2.000218818766756 9.999946611053621 0  3.000337045499663 10.00009981044198 0  4.000322751528626 9.999695193907174 0  5.000500294514119 9.999161377789594 0  6.000581963365251 9.999368946390913 0  7.000475574946854 9.99957955660989 0  8.000262179174326 9.999790059751799 0  9 10 0  -9 12 0  -8.000598717980772 11.9996993294938 0  -7.001166461041146 11.99938473177204 0  -6.001668220289345 11.99903954805398 0  -5.002060559412537 11.9986405462583 0  -4.001980840098135 11.99954559782713 0  -3.002052972103951 12.00044159784645 0  -2.001409151573314 12.00033304685507 0  -1.000693670904842 12.00027424858365 0  4.889740747636072e-05 12.00026267318157 0  1.000798815632808 12.00030017143977 0  2.001539480104886 12.00039766214178 0  3.002237790567367 12.0005824989411 0  4.002161138806978 11.99961248705565 0  5.002212030496487 11.99863445173857 0  6.001777920405462 11.9990373711976 0  7.001238052091376 11.99938376521553 0  8.000634105490356 11.99969889470041 0  9 12 0  -9 14 0  -8.001074593617311 13.99966880739907 0  -7.002151134057208 13.99932242975565 0  -6.003233016366194 13.99894434305048 0  -5.004327330728836 13.99851539783325 0  -4.004338924158066 13.99957228011241 0  -3.004345245861754 14.00064255985826 0  -2.002851264373097 14.0004891943536 0  -1.001378939696035 14.00040524835886 0  8.444147416798996e-05 14.00038042173651 0  1.001550955713442 14.00041136517277 0  2.003031819655574 14.0004997673473 0  3.004535932581478 14.0006504407187 0  4.004547902936867 13.999574053033 0  5.004554261289881 13.99850436586481 0  6.003394948556993 13.99893253969709 0  7.002255693901854 13.99931341574623 0  8.001125950887923 13.99966403655334 0  9 14 0  -9 16 0  -8.001541575894285 15.99969913506689 0  -7.003112618005515 15.99938719602887 0  -6.004745152324895 15.99905292098059 0  -5.006476417158524 15.99868485107446 0  -4.006538234998327 15.9995855148634 0  -3.006479970699013 16.00048138447941 0  -2.004209615725882 16.00036855313484 0  -1.002029689465806 16.00030048697732 0  0.0001075031510136907 16.00027573697006 0  1.00224703366041 16.00029336026879 0  2.004433983568799 16.00035342340161 0  3.006716322326162 16.00045677319624 0  4.006781766209967 15.99954577163474 0  5.006724536364223 15.99863407708294 0  6.00492843145113 15.99901733488358 0  7.003233281318146 15.99936439228546 0  8.001601429529178 15.99968796844587 0  9 16 0  -9 18 0  -8.001889524882383 17.99977378748524 0  -7.003826047370535 17.99954142070343 0  -6.005859010631897 17.99929686320052 0  -5.008042718679828 17.99903433792659 0  -4.008135800330803 17.99958840391903 0  -3.00804618578454 18.00014175168427 0  -2.005209912803072 18.00006957884623 0  -1.002511219638295 18.00002321644368 0  0.0001211495408341879 18.0000023059681 0  1.002754995911904 18.00000632632537 0  2.005458022653856 18.00003463171184 0  3.00830115303509 18.0000863168384 0  4.008396052820026 17.99952470962046 0  5.0083056857656 17.99896476251905 0  6.006054316287235 17.99924720980431 0  7.003955301806311 17.99950946492844 0  8.001953862879033 17.99975814095952 0  9 18 0  -9 20 0  -8.002048405136081 19.99987303836511 0  -7.004151579808595 19.99974443546675 0  -6.006366380327304 19.99961273803086 0  -5.008753834288111 19.99947686106426 0  -4.008859874526073 19.99958831788926 0  -3.008755250377387 19.9996989703112 0  -2.005664019991509 19.9996678963063 0  -1.002729419379675 19.99964469001379 0  0.0001288083507536424 19.99962970177572 0  1.002988018636715 19.99962268401551 0  2.005925530633935 19.99962281238148 0  3.00902150428651 19.9996286348456 0  4.009128219027762 19.99951425661963 0  5.009022929590723 19.99940100029923 0  6.006566900001454 19.99955793021986 0  7.004284630864476 19.9997088900908 0  8.002114740455657 19.99985556330549 0  8.999999999989537 19.9999999999934 0  -9 22 0  -8.001987211364238 21.99997883316681 0  -7.004028489099683 21.99995982276056 0  -6.006179588333882 21.99994533370241 0  -5.008499625556244 21.99993815186896 0  -4.008603343194807 21.99958403442087 0  -3.008500583314186 21.9992290079989 0  -2.005495788744101 21.99923491804 0  -1.002644097824259 21.99923348371654 0  0.0001325337976724709 21.99922540818965 0  1.002909794860496 21.99921063453923 0  2.005763354354584 21.99918836032953 0  3.008771199918604 21.99915702389928 0  4.008873680300804 21.99951090395481 0  5.008768787546988 21.99986539986521 0  6.006380716700432 21.99989251715769 0  7.004162206508782 21.99992543914153 0  8.002053954019141 21.99996188958368 0  9 22 0  -9 24 0  -8.001708729456942 24.0000760025329 0  -7.003463947708832 24.00015712288978 0  -6.005313443746281 24.00024869110548 0  -5.007307519659591 24.000356475303 0  -4.007396916645818 23.99957578393517 0  -3.007309211200139 23.99879426288532 0  -2.004719198423622 23.99883115261676 0  -1.002260409834787 23.9988486870829 0  0.0001338398760228302 23.9988477504104 0  1.002528454941799 23.99882841880866 0  2.004988327408852 23.99878996447168 0  3.007580107492678 23.99873085037509 0  4.00766563212983 23.99951274426416 0  5.007573664054462 24.00029496641793 0  6.00551272057389 24.00020385835428 0  7.00359662680858 24.00012785334439 0  8.0017750093642 24.00006155385909 0  9 24 0  -9 26 0  -8.001243128322608 26.00015272117108 0  -7.002519997721556 26.0003126436212 0  -6.003865267594583 26.00048718203724 0  -5.005315250370999 26.00068419326841 0  -4.005381215349336 25.99956410737834 0  -3.005318462827358 25.99844337070558 0  -2.003421618353773 25.99850443902107 0  -1.001620336296341 25.99853740739174 0  0.0001338517822546108 25.99854329995406 0  1.00188820640569 25.9985223113009 0  2.00368997690185 25.99847380731565 0  3.005587598286414 25.99839632319704 0  4.005646805617871 25.99951803126972 0  5.005577262131031 26.00063985863576 0  6.004061780988431 26.00045478510518 0  7.002650993682248 26.00029145239935 0  8.001308613970949 26.00014224737391 0  9 26 0  -9 28 0  -8.000641212242162 28.00020065846474 0  -7.001299981881442 28.00040971437426 0  -6.001994388871369 28.00063578063106 0  -5.002743304566303 28.00088790802573 0  -4.002779614686543 27.99955008965276 0  -3.002748290311763 27.99821192216269 0  -2.001745613596957 27.99828973948251 0  -1.000793619002252 27.99833403936863 0  0.000133367993750262 27.99834597494704 0  1.001060384159857 27.99832585556164 0  2.002012451876825 27.99827314687816 0  3.003015203055599 27.99818646990982 0  4.003042156934987 27.99952555894974 0  5.003001674510267 28.00086468399046 0  6.002188414793353 28.0006187736859 0  7.001429437455258 28.0003985715736 0  8.000705965452772 28.00019514478
[...]
<PointData  Scalars="f_44-1"> 
<DataArray  type="Float64"  Name="f_44-1"  format="ascii">1.5987851000890752e-03  7.1723629545872549e-05  6.2659288447412695e-05  1.8369889242106114e-04  -1.8475930986727800e-03  0.0000000000000000e+00  0.0000000000000000e+00  0.0000000000000000e+00  0.0000000000000000e+00  0.0000000000000000e+00  0.0000000000000000e+00  0.0000000000000000e+00  0.0000000000000000e+00  0.0000000000000000e+00  1.6135906008661490e-03  7.1342081377548697e-05  6.3272944624371562e-05  1.7982294100312414e-04  -1.8756500473860712e-03  9.0409066205796682e-02  9.0456569578238874e-02  9.0362472280851425e-02  9.0105220695986990e-02  8.9982016318023217e-02  0.0000000000000000e+00  0.0000000000000000e+00  0.0000000000000000e+00  0.0000000000000000e+00  0.0000000000000000e+00  0.0000000000000000e+00  0.0000000000000000e+00  0.0000000000000000e+00  0.0000000000000000e+00  9.0550476230633267e-02  9.0596616632766427e-02  9.0499464055124421e-02  9.0239534252553905e-02  9.0114115653833399e-02  1.8065149142790177e-01  1.8064145659919636e-01  1.8059762518656250e-01  1.8057200722828110e-01  1.8059232202374689e-01  0.0000000000000000e+00  0.0000000000000000e+00  0.0000000000000000e+00  0.0000000000000000e+00  0.0000000000000000e+00  0.0000000000000000e+00  0.0000000000000000e+00  0.0000000000000000e+00  0.0000000000000000e+00  1.8090741970106014e-01  1.8090798599098371e-01  1.8087382552431505e-01  1.8085427178507366e-01  1.8087990128914655e-01  2.7095482111551650e-01  2.7094877187010369e-01  2.7094295987185629e-01  2.7093786549889021e-01  2.7091965908352905e-01  0.0000000000000000e+00  0.0000000000000000e+00  0.0000000000000000e+00  0.0000000000000000e+00  0.0000000000000000e+00  0.0000000000000000e+00  0.0000000000000000e+00  0.0000000000000000e+00  0.0000000000000000e+00  2.7135485323340558e-01  2.7134656353891168e-01  2.7134741999051049e-01  2.7135136359017592e-01  2.7135287925364077e-01  3.6130653034107785e-01  3.6129340628819362e-01  3.6126467090735703e-01  3.6119523991449842e-01  3.6114392175386412e-01  0.0000000000000000e+00  0.0000000000000000e+00  0.0000000000000000e+00  0.0000000000000000e+00  0.0000000000000000e+00  0.0000000000000000e+00  0.0000000000000000e+00  0.0000000000000000e+00  0.0000000000000000e+00  3.6177563164834992e-01  3.6180672676173137e-01  3.6181497063206880e-01  3.6182414212520092e-01  3.6183081966860248e-01  4.5170696119289927e-01  4.5169093511990460e-01  4.5167071154795002e-01  4.5166922812557120e-01  4.5170104165479369e-01  0.0000000000000000e+00  1.3703462539001083e+00  1.3702564030593030e+00  1.3703979866248404e+00  1.3704026947588577e+00  1.3704089888067239e+00  1.3703059135477411e+00  1.3694967967326270e+00  0.0000000000000000e+00  4.5226780112601045e-01  4.5227021897976732e-01  4.5227889863271586e-01  4.5230047068945439e-01  4.5231355505279552e-01  5.4213725969999604e-01  5.4211420007289413e-01  5.4207442541260831e-01  5.4202344347670672e-01  5.4190543311286066e-01  0.0000000000000000e+00  1.3703932597442270e+00  1.3704341814869470e+00  1.3704548941026888e+00  1.3704394339933774e+00  1.3704376408114403e+00  1.3704139851408623e+00  1.3705718592965235e+00  0.0000000000000000e+00  5.4259896814193298e-01  5.4267127898083201e-01  5.4275647193694565e-01  5.4280423910921982e-01  5.4282564359275254e-01  6.3264245901737681e-01  6.3261379672791618e-01  6.3255108440144281e-01  6.3245429463074654e-01  6.3230291325330545e-01  0.0000000000000000e+00  1.3707328409416191e+00  1.3706128490821199e+00  1.3705205348660352e+00  1.3704892373097390e+00  1.3704949460046718e+00  1.3705338622553132e+00  1.3705984096136143e+00  0.0000000000000000e+00  6.3303645027453981e-01  6.3320651328473299e-01  6.3332831934262412e-01  6.3340264135015989e-01  6.3343161628025757e-01  7.2328767146263140e-01  7.2325667108655012e-01  7.2317700054247314e-01  7.2304749165895588e-01  7.2284873971463892e-01  0.0000000000000000e+00  1.3706739162099548e+00  1.3705332717899712e+00  1.3704442429521080e+00  1.3704079708738606e+00  1.3704204556051509e+00  1.3704817221591212e+00  1.3706080633275517e+00  0.0000000000000000e+00  7.2371089111563502e-01  7.2392785934296067e-01  7.2408489646721308e-01  7.2417700531947415e-01  7.2420843978620797e-01  8.1412639756888083e-01  8.1409686812909587e-01  8.1401156173573330e-01  8.1386919610111041e-01  8.1365649362185777e-01  0.0000000000000000e+00  1.3704411046608820e+00  1.3702681340732901e+00  1.3701600539842282e+00  1.3701176795007424e+00  1.3701391520547301e+00  1.3702240232446425e+00  1.3703823357206777e+00  0.0000000000000000e+00  8.1471329068449871e-01  8.1493154595235140e-01  8.1508694419862215e-01  8.1517890275780425e-01  8.1520807701051212e-01  9.0518409109317777e-01  9.0515940018744412e-01  9.0508004608576853e-01  9.0494545420691286e-01  9.0474753480933068e-01  0.0000000000000000e+00  1.3699133189672086e+00  1.3697305045096810e+00  1.3696204713007141e+00  1.3695790578974008e+00  1.3696053143162963e+00  1.3697000085039106e+00  1.3698686539705620e+00  0.0000000000000000e+00  9.0600847475097124e-01  9.0620356216540832e-01  9.0633984285967917e-01  9.0642000918997412e-01  9.0644329150899117e-01  9.9645499339669030e-01  9.9643751656846802e-01  9.9637356513951125e-01  9.9626320730662976e-01  9.9610237418272896e-01  0.0000000000000000e+00  1.3690867126390209e+00  1.3689127816553615e+00  1.3688107672483887e+00  1.3687729576008512e+00  1.3687997445698277e+00  1.3688926998716306e+00  1.3690534313339173e+00  0.0000000000000000e+00  9.9756455205398153e-01  9.9771421722342113e-01  9.9781615898466314e-01  9.9787593614487247e-01  9.9789097436709362e-01  1.0879064105839507e+00  1.0878973965389858e+00  1.0878553936408126e+00  1.0877808417029162e+00  1.0876728848899995e+00  0.0000000000000000e+00  1.3679765167818969e+00  1.3678281177226934e+00  1.3677432309799908e+00  1.3677118371605950e+00  1.3677353289671690e+00  1.3678158586073990e+00  1.3679512863799919e+00  0.0000000000000000e+00  1.0893176167907734e+00  1.0894069164737896e+00  1.0894644413057974e+00  1.0894981283793983e+00  1.0895037002942234e+00  1.1794856475070239e+00  1.1794852537500362e+00  1.1794686999348400e+00  1.1794364759554339e+00  1.1793903112076700e+00  0.0000000000000000e+00  1.3666265487532441e+00  1.3665172002743300e+00  1.3664567364656539e+00  1.3664339408761448e+00  1.3664509537918224e+00  1.3665103374839069e+00  1.3666067314276029e+00  0.0000000000000000e+00  1.1811854622369131e+00  1.1812067894860081e+00  1.1812152979150339e+00  1.1812204077304038e+00  1.1812164697468055e+00  1.2711277198893423e+00  1.2711351346972239e+00  1.2711445948119804e+00  1.2711563177745531e+00  1.2711740549584809e+00  0.0000000000000000e+00  1.3651034910773689e+00  1.3650426086670229e+00  1.3650114225560934e+00  1.3649986278758732e+00  1.3650068528261727e+00  1.3650388781158345e+00  1.3650867337776085e+00  0.0000000000000000e+00  1.2730775176203182e+00  1.2730302644401719e+00  1.2729901899887999e+00  1.2729672299509485e+00  1.2729547635470042e+00  1.3627630575040757e+00  1.3627766755740478e+00  1.3628100582963112e+00  1.3628628876642992e+00  1.3629403952909709e+00  0.0000000000000000e+00  1.3634896223291695e+00  1.3634820767226037e+00  1.3634823529190703e+00  1.3634801050217811e+00  1.3634781854897084e+00  1.3634793892512145e+00  1.3634738407839699e+00  0.0000000000000000e+00  1.3649031988585907e+00  1.3647931692790720e+00  1.3647095156415063e+00  1.3646616668497431e+00  1.3646424884792527e+00  1.4543246843610165e+00  1.4543423153176487e+00  1.4543952683169143e+00  1.4544825284930705e+00  1.4546102319592427e+00  0.0000000000000000e+00  1.3618754210818595e+00  1.3619213183931613e+00  1.3619524388834443e+00  1.3619603524810195e+00  1.3619478949588166e+00  1.3619176452647437e+00  1.3618586466738203e+00  0.0000000000000000e+00  1.4565798263880338e+00  1.4564183756051525e+00  1.4563000308374581e+00  1.4562327095006262e+00  1.4562092448212782e+00  1.5457545510259942e+00  1.5457736536194551e+00  1.5458400497759612e+00  1.5459519884191433e+00  1.5461158403843560e+00  0.0000000000000000e+00  1.3603517617109522e+00  1.3604463956568356e+00  1.3605049176052033e+00  1.3605216532173512e+00  1.3604991997574338e+00  1.3604396673496786e+00  1.3603319724369833e+00  0.0000000000000000e+00  1.5480393645387072e+00  1.5478423517673967e+00  1.5477012663160552e+00  1.5476216240833884e+00  1.5475966660052609e+00  1.6370087751607083e+00  1.6370267229645974e+00  1.6370992051695492e+00  1.6372238571979369e+00  1.6374064788927494e+00  0.0000000000000000e+00  1.3590020069452708e+00  1.3591360151533047e+00  1.3592157686892161e+00  1.3592390444892526e+00  1.3592079927122149e+00  1.3591240091924028e+00  1.3589769636111184e+00  0.0000000000000000e+00  1.6392340058946153e+00  1.6390205854947604e+00  1.6388708601142232e+00  1.6387871803435310e+00  1.6387636194478021e+00  1.7280616491784175e+00  1.7280759030467614e+00  1.7281465238767797e+00  1.7282708591882474e+00  1.7284529781977667e+00  0.0000000000000000e+00  1.3578942510954970e+00  1.3580540015538654e+00  1.3581463268384630e+00  1.3581729822588875e+00  1.3581355085366911e+00  1.3580343234800494e+00  1.3578614336006982e+00  0.0000000000000000e+00  1.7301405564596652e+00  1.7299317008851467e+00  1.7297884641223116e+00  1.7297094697045030e+00  1.7296900048058492e+00  1.8189078176442546e+00  1.8189165982351814e+00  1.8189779928327148e+00  1.8190892475881879e+00  1.8192513336330112e+00  0.0000000000000000e+00  1.3570741195570901e+00  1.3572422388873480e+00  1.3573365139684221e+00  1.3573627485627457e+00  1.3573216538537931e+00  1.3572123068038715e+00  1.3570302550610898e+00  0.0000000000000000e+00  1.8207633059043804e+00  1.8205800854613756e+00  1.8204581742900219e+00  1.8203921345554306e+00  1.8203789468878924e+00  1.9095625133856613e+00  1.9095642402335786e+00  1.9096093475945042e+00  1.9096958197486751e+00  1.9098200437411685e+00  0.0000000000000000e+00  1.3565569893524070e+00  1.3567152202863402e+00  1.3567999574402685e+00  1.3568214966942680e+00  1.3567793482256116e+00  1.3566717079023751e+00  1.3564992675859051e+00  0.0000000000000000e+00  1.9111354398080991e+00  1.9109970864887456e+00  1.9109087760156114e+00  1.9108624623360260e+00  1.9108568160617627e+00  2.0000604381284859e+00  2.0000566637336421e+00  2.0000832507373181e+00  2.0001390365035006e+00  2.0002123395131819e+00  0.0000000000000000e+00  1.3563296399906428e+00  1.3564562776976550e+00  1.3565176310336027e+00  1.3565302677390003e+00  1.3564942434976790e+00  1.3564054877584375e+00  1.3562650577934550e+00  0.0000000000000000e+00  2.0013218866072555e+00  2.0012370229099412e+00  2.0011915084259284e+00  2.0011688221874455e+00  2.0011707017341998e+00  2.0904451673072195e+00  2.0904354303843213e+00  2.0904412898813689e+00  2.0904747340883776e+00  2.0905122393633309e+00  0.0000000000000000e+00  1.3563398240505671e+00  1.3564044566021749e+00  1.3564437350107150e+00  1.3564495454030967e+00  1.3564179520058328e+00  1.3563250531421420e+00  1.3562052206710011e+00  0.0000000000000000e+00  2.0913831388927191e+00  2.0913768536307336e+00  2.0913737333610336e+00  2.0913752053667296e+00  2.0913829276546072e+00  2.1807725937687783e+00  2.1807616015434577e+00  2.1807558688323034e+00  2.1807493128239410e+00  2.1806849930015524e+00  0.0000000000000000e+00  1.3563671565568218e+00  1.3565259297946379e+00  1.3565030755893694e+00  1.3565016028659926e+00  1.3564859692856794e+00  1.3565058570943704e+00  1.3565443847201508e+00  0.0000000000000000e+00  2.1815016054898804e+00  2.1814943259887749e+00  2.1815315887317981e+00  2.1815514126222779e+00  2.1815620923986909e+00  2.2711021128146935e+00  2.2710907232454294e+00  2.2710679964891827e+00  2.2710104356453416e+00  2.2709533274653966e+00  0.0000000000000000e+00  1.3574413332844444e+00  1.3566356718266501e+00  1.3565353950133592e+00  1.3565420336543690e+00  1.3565462312473591e+00  1.3566850908850250e+00  1.3565963179119429e+00  0.0000000000000000e+00  2.2715197076113931e+00  2.2716679710530809e+00  2.2717301989628473e+00  2.2717606802041392e+00  2.2717707357607058e+00  2.3614776180664143e+00  2.3614750374883164e+00  2.3614541462572984e+00  2.3614256921844072e+00  2.3614142851887374e+00  0.0000000000000000e+00  0.0000000000000000e+00  0.0000000000000000e+00  0.0000000000000000e+00  0.0000000000000000e+00  0.0000000000000000e+00  0.0000000000000000e+00  0.0000000000000000e+00  0.0000000000000000e+00  2.3619902204879959e+00  2.3620049909983227e+00  2.3620180609743078e+00  2.3620362746589336e+00  2.3620454871322707e+00  2.4519270545116298e+00  2.4518956691681275e+00  2.4518918820649498e+00  2.4518897499758463e+00  2.4518589527963699e+00  0.0000000000000000e+00  0.0000000000000000e+00  0.0000000000000000e+00  0.0000000000000000e+00  0.0000000000000000e+00  0.0000000000000000e+00  0.0000000000000000e+00  0.0000000000000000e+00  0.0000000000000000e+00  2.4523902692359818e+00  2.4523499112368219e+00  2.4523563056348849e+00  2.4523706291871394e+00  2.4523631578006695e+00  2.5422685565139642e+00  2.5423076951553538e+00  2.5423309734002291e+00  2.5422625453375631e+00  2.5422459736908167e+00  0.0000000000000000e+00  0.0000000000000000e+00  0.0000000000000000e+00  0.0000000000000000e+00  0.0000000000000000e+00  0.0000000000000000e+00  0.0000000000000000e+00  0.0000000000000000e+00  0.0000000000000000e+00  2.5426001018565731e+00  2.5426338318760169e+00  2.5426537481241334e+00  2.5425868430356298e+00  2.5425742861476084e+00  2.6328017297824466e+00  2.6329909030272383e+00  2.6328959381212189e+00  2.6330107513960779e+00  2.6332896382862976e+00  0.0000000000000000e+00  0.0000000000000000e+00  0.0000000000000000e+00  0.0000000000000000e+00  0.0000000000000000e+00  0.0000000000000000e+00  0.0000000000000000e+00  0.0000000000000000e+00  0.0000000000000000e+00  2.6329947998311827e+00  2.6331632653868837e+00  2.6330620475175528e+00  2.6331684928505577e+00  2.6334343449142157e+00  2.7263386051520238e+00  2.7229782295329326e+00  2.7229101265127991e+00  2.7230878766813098e+00  2.7211636238187671e+00  0.0000000000000000e+00  0.0000000000000000e+00  0.0000000000000000e+00  0.0000000000000000e+00  0.0000000000000000e+00  0.0000000000000000e+00  0.0000000000000000e+00  0.0000000000000000e+00  0.0000000000000000e+00  2.7262877492763482e+00  2.7229837819275415e+00  2.7229126980422707e+00  2.7230868577118588e+00  2.7211918867621332e+00  </DataArray> 
</PointData> 
</Piece>
</UnstructuredGrid>
</VTKFile>