<?xml version="1.0"?>
<VTKFile type="UnstructuredGrid"  version="0.1"  >
<UnstructuredGrid>
<Piece  NumberOfPoints="589" NumberOfCells="1080">
<Points>
<DataArray  type="Float64"  NumberOfComponents="3"  format="ascii">-9 0 0  -8 0 0  -7 0 0  -6 0 0  -5 0 0  -4 0 0  -3 0 0  -2 0 0  -1 0 0  0 0 0  1 0 0  2 0 0  3 0 0  4 0 0  5 0 0  6 0 0  7 0 0  8 0 0  9 0 0  -9 2 0  -8.00000700744501 1.999989567324893 0  -7.000014691106231 1.999980413973478 0  -6.000024645345387 1.999973578060005 0  -5.000040518684353 1.999969513070629 0  -4.000024097402366 1.9999772523824 0  -3.000007208174429 1.999984551674722 0  -1.999998945470024 1.999991385866581 0  -0.9999975096899023 1.99999678941874 0  -3.417875265741328e-07 1.999999172048833 0  0.9999965039188815 1.9999975678576 0  1.999996853063945 1.999992377775048 0  3.000003269985141 1.999986022954351 0  4.000016533383572 1.999979265439152 0  5.000035706850118 1.99997664523923 0  6.000021493367544 1.999977554299821 0  7.000012765896855 1.999982660936341 0  8.000006093341545 1.999990607145596 0  9 2 0  -9 4 0  -8.000011309876479 3.999974017973354 0  -7.000020299925614 3.999951558657144 0  -6.000025614219838 3.999936072674704 0  -5.000027532553933 3.99993085020364 0  -4.000003681248767 3.999934499458127 0  -2.999987653803486 3.999955012027671 0  -1.999983400094689 3.999981690566608 0  -0.9999893633620395 4.000003155303131 0  -8.919842562650017e-07 4.000011843445153 0  0.9999873220304358 4.000005188407341 0  1.999980485019397 3.999987108522368 0  2.999983800732785 3.999962642831961 0  3.999998847594005 3.99993810967966 0  5.000021829185829 3.999930126111738 0  6.00002104255767 3.999938318692449 0  7.000017311976742 3.999953964230124 0  8.000009869577818 3.999975428384346 0  9 4 0  -9 6 0  -8.000024890837148 5.999944380800748 0  -7.000040611702379 5.999894812797392 0  -6.000040166949385 5.999857515926509 0  -5.000021553821436 5.999838449680645 0  -3.999975097187773 5.999868879846463 0  -2.999953943082779 5.999932318852601 0  -1.999962234575046 5.999998788740302 0  -0.9999829578966418 6.000035731314076 0  -3.902694760078807e-06 6.000043188421033 0  0.9999773042001446 6.000031315079662 0  1.999963016557343 5.999998414092685 0  2.999957696356543 5.999942827444409 0  3.999968658443974 5.999885247672502 0  5.000008114683487 5.999856889038072 0  6.000032367513475 5.999869273818883 0  7.000036704520567 5.999901995993207 0  8.00002335334784 5.999947822564232 0  9 6 0  -9 8 0  -8.000075142927111 7.999890552757573 0  -7.000125580658991 7.999788997365622 0  -6.000127390117276 7.999706051426002 0  -5.000060117886637 7.999659376925259 0  -3.999970258876715 7.999799589313541 0  -2.99998689124683 7.999964286745626 0  -2.000020668048097 8.000044472868446 0  -1.000023559938792 8.000053519824583 0  -3.477042901094838e-06 8.000056137708343 0  1.000011601306899 8.000064182739436 0  2.00000555566397 8.000030914048134 0  2.999966753055549 7.999974257547771 0  3.999953707117416 7.999833726161719 0  5.0000416711298 7.999675132331462 0  6.000123345134726 7.999718899839452 0  7.000126837621973 7.999797625798807 0  8.000076835413873 7.999894825080744 0  9 8 0  -9 10 0  -8.000224145504575 9.999805213930781 0  -7.000404986945163 9.999608831759312 0  -6.000490868462074 9.999409645709488 0  -5.000409851999676 9.999207369626978 0  -4.000267341343293 9.999660198241251 0  -3.000290822743491 10.00004948852912 0  -2.000233090885587 9.999982150664817 0  -1.000107883936646 9.999960543729189 0  -1.573993660754014e-05 9.999955274998374 0  1.000075593188905 9.999955711129335 0  2.00019705983017 9.999953393231223 0  3.00030413738087 10.00009289600475 0  4.000290921551183 9.999725641597696 0  5.000452093820873 9.99924098544146 0  6.000526899226153 9.999428807316354 0  7.000430855236264 9.999619426669698 0  8.000237588729048 9.99980996580004 0  9 10 0  -9 12 0  -8.000546038395051 11.9997263805276 0  -7.001063700834436 11.99944008586665 0  -6.001520911328646 11.99912595511248 0  -5.001877882874473 11.99876284230418 0  -4.001804992469741 11.99958884236976 0  -3.001871095386964 12.00040662912332 0  -2.001286749512412 12.00030731476541 0  -1.000636454704639 12.00025332352446 0  3.888898701992176e-05 12.00024236546448 0  1.000721108402941 12.00027610802862 0  2.001394934974067 12.00036444975074 0  3.002030109186369 12.00053220670076 0  4.001960359380456 11.9996509941292 0  5.002006646163291 11.99876251550338 0  6.001613115824382 11.99912778981793 0  7.001123395259989 11.99944171113208 0  8.000575406143959 11.99972722702403 0  9 12 0  -9 14 0  -8.000980761867408 13.99969838483605 0  -7.001963144739187 13.9993829213887 0  -6.002950066331896 13.99903853891842 0  -5.003947787380588 13.99864776930414 0  -4.003958060167029 13.99961376463926 0  -3.003964247753091 14.00059198975049 0  -2.002605473704705 14.00045143865649 0  -1.001265780080444 14.00037419350183 0  6.616848005767628e-05 14.0003508579104 0  1.001401174599769 14.00037835885895 0  2.002749284296323 14.00045820590708 0  3.004118438777059 14.00059475100008 0  4.004129293730603 13.99961655943038 0  5.004135122671979 13.99864446523319 0  6.003082479814777 13.99903271199805 0  7.00204806498899 13.99937793267351 0  8.001022303119568 13.99969563253089 0  9 14 0  -9 16 0  -8.0014080822266 15.99972587354721 0  -7.002842920104045 15.99944162607551 0  -6.004333587333785 15.99913696154731 0  -5.005913900000626 15.99880139879142 0  -4.005970066398096 15.99962641526561 0  -3.005917275897288 16.00044706967588 0  -2.0038502527143 16.00034307566974 0  -1.00186516904938 16.00028001859875 0  8.125305780161492e-05 16.00025653969949 0  1.002029925949762 16.00027175187112 0  2.004021780489098 16.00032569528174 0  3.00610036995503 16.0004191301393 0  4.006159917578755 15.99959125068638 0  5.00610786084428 15.99876274098417 0  6.004476204572876 15.99911009727042 0  7.00293647093156 15.99942448855638 0  8.001454379963731 15.99971749957258 0  9 16 0  -9 18 0  -8.001727411030929 17.9997938702876 0  -7.003497640879168 17.99958209485284 0  -6.005355735406352 17.99935913159885 0  -5.00735117505014 17.99911967003133 0  -4.007436025156732 17.99962950431297 0  -3.007354501530286 18.00013868521176 0  -2.00477031275223 18.00007157218739 0  -1.002311337816694 18.00002815830363 0  8.727555586151478e-05 18.00000807709386 0  1.002487237164116 18.00001082575277 0  2.004950169395528 18.0000357986377 0  3.007540621640449 18.00008216523826 0  4.007627044581447 17.99957233884051 0  5.007544736595753 17.99906402121799 0  6.005499124890957 17.99931957224323 0  7.003592351607631 17.9995567067294 0  8.001774496874603 17.99978146029318 0  9 18 0  -9 20 0  -8.001874566149265 19.99988443484646 0  -7.003799125829055 19.9997673381781 0  -6.005825581066687 19.99964734707929 0  -5.008009650756942 19.99952343040359 0  -4.008106485190927 19.99962974496157 0  -3.008011090252502 19.9997353391596 0  -2.005192946044089 19.9997057176964 0  -1.002517690434607 19.99968342710237 0  8.783420448084271e-05 19.99966875313389 0  1.002694136617767 19.99966144546714 0  2.005371689462303 19.99966073646059 0  3.008193551326719 19.9996652949097 0  4.008290804515777 19.99956293391712 0  5.008194836870506 19.99946160802584 0  6.005963490184526 19.999602777752 0  7.003890587982994 19.99973848026544 0  8.001920151986683 19.9998702619733 0  8.999999999994197 19.9999999999934 0  -9 22 0  -8.001820916874022 21.99998110820185 0  -7.003691261924406 21.99996415505169 0  -6.005662012647131 21.99995126786302 0  -5.007787231971272 21.99994495506745 0  -4.007882048979127 21.9996260775889 0  -3.007788163730083 21.99930639825521 0  -2.005047497604699 21.99931068802033 0  -1.002446756680195 21.99930839144028 0  8.527508747732803e-05 21.9993001258253 0  1.002617655939484 21.99928581967716 0  2.005219420718017 21.99926472572884 0  3.007961717253222 21.99923540827698 0  4.008055186742609 21.99955992808523 0  5.007959574157477 21.99988503979321 0  6.005791001270942 21.99990784141488 0  7.003777111186229 21.99993591873523 0  8.001863793155989 21.99996720433009 0  9 22 0  -9 24 0  -8.001568702334115 24.00007002742586 0  -7.003179970863065 24.00014470688106 0  -6.004877568590412 24.00022888364448 0  -5.006707572129582 24.00032780165153 0  -4.006789342630699 23.99961877728402 0  -3.006709022963651 23.99890903232204 0  -2.004345717481908 23.99894186923943 0  -1.002102541365129 23.99895710485089 0  8.139913226209369e-05 23.99895553201487 0  1.002265361538097 23.99893720648094 0  2.004508585765592 23.99890145025045 0  3.006871914182354 23.99884684657408 0  4.006949992698543 23.99956166955559 0  5.006866225612971 24.00027683338026 0  6.004996827759763 24.0001917820422 0  7.003259589035113 24.00012050822016 0  8.001608537051931 24.00005808915243 0  9 24 0  -9 26 0  -8.001145244642174 26.00014035581271 0  -7.002321448487614 26.00028727897214 0  -6.003560411905795 26.0004475322636 0  -5.004895464017016 26.0006282825501 0  -4.004955801391822 25.99960837941221 0  -3.004898129597396 25.99858791898622 0  -2.003166663779465 25.9986431505173 0  -1.001522853869379 25.99867274754445 0  7.757387055863234e-05 25.99867764021847 0  1.001677780283417 25.99865799847244 0  2.003320909366297 25.99861323211072 0  3.005051182663358 25.99854198919817 0  4.005105303462415 25.99956661960509 0  5.00504210267652 26.00059140097245 0  6.003671080418016 26.00042061307533 0  7.002395539339263 26.00026968611372 0  8.001182375855404 26.00013166518058 0  9 26 0  -9 28 0  -8.000596824469637 28.00018443468614 0  -7.001209834799145 28.0003765418739 0  -6.001855691904404 28.00058419191686 0  -5.002551794842237 28.00081565673678 0  -4.002584976427334 27.99959587473565 0  -3.002555928122024 27.99837580213594 0  -2.001640163356165 27.99844665000287 0  -1.000771076190447 27.99848688259832 0  7.477577766173892e-05 27.99849755538657 0  1.000920245578026 27.99847894848301 0  2.001788166187644 27.99843056683108 0  3.002701920139275 27.99835113906617 0  4.002726628076826 27.99957367980483 0  5.002690073536499 28.00079628586087 0  6.00196037776638 28.00057002348516 0  7.001280075294088 28.0003672670627 0  8.000632073889125 28
[...]
<PointData  Scalars="f_44-1"> 
<DataArray  type="Float64"  Name="f_44-1"  format="ascii">1.5002222486073173e-03  9.2187867930313628e-05  6.9671533353188848e-05  1.9364602086586921e-04  -1.7915025432428545e-03  0.0000000000000000e+00  0.0000000000000000e+00  0.0000000000000000e+00  0.0000000000000000e+00  0.0000000000000000e+00  0.0000000000000000e+00  0.0000000000000000e+00  0.0000000000000000e+00  0.0000000000000000e+00  1.5171913350385832e-03  9.1821186022318115e-05  7.0244000091552905e-05  1.9112532424434526e-04  -1.8221916141462045e-03  8.0530544018362973e-02  8.0587089494305514e-02  8.0523989382650013e-02  8.0303194274181811e-02  8.0196410448010333e-02  0.0000000000000000e+00  0.0000000000000000e+00  0.0000000000000000e+00  0.0000000000000000e+00  0.0000000000000000e+00  0.0000000000000000e+00  0.0000000000000000e+00  0.0000000000000000e+00  0.0000000000000000e+00  8.0713058488954700e-02  8.0769278888290427e-02  8.0704166305982192e-02  8.0480914161120173e-02  8.0373037919471965e-02  1.6099877526875711e-01  1.6099125528367764e-01  1.6094995661133962e-01  1.6093012011832702e-01  1.6095175274380150e-01  0.0000000000000000e+00  0.0000000000000000e+00  0.0000000000000000e+00  0.0000000000000000e+00  0.0000000000000000e+00  0.0000000000000000e+00  0.0000000000000000e+00  0.0000000000000000e+00  0.0000000000000000e+00  1.6134439143699136e-01  1.6134360392249303e-01  1.6130880298469324e-01  1.6129435704172118e-01  1.6132242735723845e-01  2.4148387315903719e-01  2.4147732130485308e-01  2.4147076715701901e-01  2.4146415817678848e-01  2.4144437850966202e-01  0.0000000000000000e+00  0.0000000000000000e+00  0.0000000000000000e+00  0.0000000000000000e+00  0.0000000000000000e+00  0.0000000000000000e+00  0.0000000000000000e+00  0.0000000000000000e+00  0.0000000000000000e+00  2.4201464657278235e-01  2.4200194459899602e-01  2.4199977618356208e-01  2.4200201112180750e-01  2.4200097341581422e-01  3.2201385339781347e-01  3.2200244347356977e-01  3.2198067129127544e-01  3.2192637453171102e-01  3.2188330651272390e-01  0.0000000000000000e+00  0.0000000000000000e+00  0.0000000000000000e+00  0.0000000000000000e+00  0.0000000000000000e+00  0.0000000000000000e+00  0.0000000000000000e+00  0.0000000000000000e+00  0.0000000000000000e+00  3.2265408017439434e-01  3.2267153462227766e-01  3.2267466558994357e-01  3.2268118249076738e-01  3.2268613003855773e-01  4.0258233366706581e-01  4.0256686826493193e-01  4.0254771192064720e-01  4.0254446737470434e-01  4.0258257031795147e-01  0.0000000000000000e+00  1.2334366858715873e+00  1.2333459367959081e+00  1.2334876886513690e+00  1.2334978173961859e+00  1.2334996863992740e+00  1.2333862289523991e+00  1.2326115800471764e+00  0.0000000000000000e+00  4.0331837982552443e-01  4.0332436223152407e-01  4.0333682203733962e-01  4.0336026908437878e-01  4.0337281496638977e-01  4.8318549033838204e-01  4.8316082167271296e-01  4.8311363658306805e-01  4.8304896419521637e-01  4.8291629885343190e-01  0.0000000000000000e+00  1.2335383661220665e+00  1.2335623060528706e+00  1.2335696907362181e+00  1.2335486120799923e+00  1.2335484104579528e+00  1.2335390171136837e+00  1.2337086978768839e+00  0.0000000000000000e+00  4.8381751258179584e-01  4.8391187303647126e-01  4.8401480917438566e-01  4.8407521360577960e-01  4.8409883234947582e-01  5.6389321129743819e-01  5.6385912025208096e-01  5.6377565255818218e-01  5.6364159225160138e-01  5.6343938221970524e-01  0.0000000000000000e+00  1.2339377803981482e+00  1.2337544895156807e+00  1.2336245410390039e+00  1.2335788484229446e+00  1.2335939718526170e+00  1.2336649104306574e+00  1.2337892895130724e+00  0.0000000000000000e+00  5.6442862020026219e-01  5.6465582887677934e-01  5.6482074758895784e-01  5.6491927710525691e-01  5.6495380618445701e-01  6.4480564715186339e-01  6.4476483431351861e-01  6.4465007423850618e-01  6.4445892081923584e-01  6.4417105482629344e-01  0.0000000000000000e+00  1.2338292230640517e+00  1.2335917743895906e+00  1.2334439133632640e+00  1.2333860871099183e+00  1.2334141097291260e+00  1.2335280026181277e+00  1.2337454806977712e+00  0.0000000000000000e+00  6.4535341659963597e-01  6.4565838987007862e-01  6.4587800399718842e-01  6.4600680047213377e-01  6.4604782706816788e-01  7.2601350342556636e-01  7.2597024382737441e-01  7.2583746855256748e-01  7.2561248161907232e-01  7.2527907786995083e-01  0.0000000000000000e+00  1.2333864948525148e+00  1.2330890935728236e+00  1.2329068729753947e+00  1.2328382174665584e+00  1.2328806216648853e+00  1.2330340985660502e+00  1.2333121337651638e+00  0.0000000000000000e+00  7.2671335362185696e-01  7.2704842095555411e-01  7.2728490086375175e-01  7.2742397749011312e-01  7.2746599514710730e-01  8.0757375272592946e-01  8.0753266014414982e-01  8.0739778373501125e-01  8.0716715778227821e-01  8.0682836360296895e-01  0.0000000000000000e+00  1.2324406697441299e+00  1.2321184087933517e+00  1.2319256874795206e+00  1.2318552078550493e+00  1.2319054837163750e+00  1.2320778847510359e+00  1.2323813709032327e+00  0.0000000000000000e+00  8.0851935672940478e-01  8.0884837415127542e-01  8.0907676814497109e-01  8.0921036925719869e-01  8.0924862170756362e-01  8.8950020505138261e-01  8.8946543130843880e-01  8.8934385515894321e-01  8.8913433524623242e-01  8.8882798976750310e-01  0.0000000000000000e+00  1.2309593344239962e+00  1.2306463573047610e+00  1.2304622773965290e+00  1.2303958054767030e+00  1.2304467533345880e+00  1.2306173598345826e+00  1.2309123501639310e+00  0.0000000000000000e+00  8.9076516758677782e-01  8.9105075845469106e-01  8.9124558823537003e-01  8.9135911208354190e-01  8.9138945040379247e-01  9.7176362351088597e-01  9.7173841352069212e-01  9.7164328324952964e-01  9.7147779550461566e-01  9.7123657112756867e-01  0.0000000000000000e+00  1.2289581624576649e+00  1.2286871345086576e+00  1.2285301219938198e+00  1.2284734790918392e+00  1.2285181218521191e+00  1.2286668543601402e+00  1.2289199191197291e+00  0.0000000000000000e+00  9.7339049322305671e-01  9.7360147626041205e-01  9.7374174108648548e-01  9.7382313234157514e-01  9.7384243497750922e-01  1.0542971230168612e+00  1.0542835474488226e+00  1.0542246193400151e+00  1.0541203687152292e+00  1.0539689005184369e+00  0.0000000000000000e+00  1.2265091847126495e+00  1.2263079727364339e+00  1.2261936388519812e+00  1.2261517162892228e+00  1.2261840588723858e+00  1.2262937731798706e+00  1.2264768305839069e+00  0.0000000000000000e+00  1.0562946128287003e+00  1.0564084047549811e+00  1.0564793953605531e+00  1.0565203096373104e+00  1.0565267547525166e+00  1.1370050189971352e+00  1.1370038375869775e+00  1.1369867200474375e+00  1.1369538640885546e+00  1.1369066847040277e+00  0.0000000000000000e+00  1.2237324342655223e+00  1.2236212129774879e+00  1.2235606075683072e+00  1.2235368195399445e+00  1.2235524350566944e+00  1.2236105950067717e+00  1.2237034540381173e+00  0.0000000000000000e+00  1.1393479269706568e+00  1.1393523192279584e+00  1.1393466544804862e+00  1.1393430831257672e+00  1.1393362527462170e+00  1.2197740209762340e+00  1.2197846585812593e+00  1.2198104249898871e+00  1.2198513766047456e+00  1.2199118965521820e+00  0.0000000000000000e+00  1.2207823489056842e+00  1.2207717626830918e+00  1.2207703306506414e+00  1.2207662659453291e+00  1.2207626410071273e+00  1.2207623765164619e+00  1.2207545173943650e+00  0.0000000000000000e+00  1.2224051137091518e+00  1.2222992384471574e+00  1.2222174695209471e+00  1.2221700368302852e+00  1.2221509079328607e+00  1.3024856599495633e+00  1.3025062963228067e+00  1.3025714861358499e+00  1.3026808773733984e+00  1.3028412495005448e+00  0.0000000000000000e+00  1.2178316722006239e+00  1.2179218698951546e+00  1.2179788957672433e+00  1.2179941154962923e+00  1.2179708073247431e+00  1.2179114271277214e+00  1.2178028846352587e+00  0.0000000000000000e+00  1.3053198353472977e+00  1.3051141662477594e+00  1.3049646897023048e+00  1.3048785560356924e+00  1.3048493773809271e+00  1.3850288641237014e+00  1.3850566333018903e+00  1.3851536390457286e+00  1.3853189326482769e+00  1.3855608599354556e+00  0.0000000000000000e+00  1.2150536704062891e+00  1.2152342671124008e+00  1.2153428827572408e+00  1.2153748809780807e+00  1.2153334768362156e+00  1.2152204306739505e+00  1.2150217584971474e+00  0.0000000000000000e+00  1.3879593454272681e+00  1.3876747845663711e+00  1.3874730965021451e+00  1.3873574994600448e+00  1.3873215690938241e+00  1.4673116058300208e+00  1.4673428976014637e+00  1.4674607192316624e+00  1.4676634601274579e+00  1.4679599292941445e+00  0.0000000000000000e+00  1.2126041925483320e+00  1.2128551275222246e+00  1.2130028290490227e+00  1.2130472001363033e+00  1.2129911073585711e+00  1.2128354262919219e+00  1.2125666837684184e+00  0.0000000000000000e+00  1.4702181146445301e+00  1.4698841325138807e+00  1.4696514771601554e+00  1.4695188556672385e+00  1.4694801759639617e+00  1.5492705920015661e+00  1.5493014018145481e+00  1.5494267925759042e+00  1.5496445840430149e+00  1.5499625638784036e+00  0.0000000000000000e+00  1.2106050695271884e+00  1.2108983865089127e+00  1.2110681002977717e+00  1.2111188759541271e+00  1.2110529643323751e+00  1.2108701797170767e+00  1.2105591814300736e+00  0.0000000000000000e+00  1.5520292962475670e+00  1.5516811530027261e+00  1.5514424788658299e+00  1.5513072642451839e+00  1.5512701415777019e+00  1.6308776782043208e+00  1.6309043234573057e+00  1.6310235181974115e+00  1.6312326014900285e+00  1.6315365504546970e+00  0.0000000000000000e+00  1.2091304201563817e+00  1.2094327565707159e+00  1.2096044931233090e+00  1.2096547219275688e+00  1.2095847815561120e+00  1.2093932130636156e+00  1.2090725707350176e+00  0.0000000000000000e+00  1.6333730447157122e+00  1.6330481742012484e+00  1.6328294827640140e+00  1.6327064491781025e+00  1.6326749385988732e+00  1.7121428862869656e+00  1.7121619678834921e+00  1.7122616132878623e+00  1.7124391616756134e+00  1.7126950927461977e+00  0.0000000000000000e+00  1.2081959092429935e+00  1.2084733576750895e+00  1.2086264919332308e+00  1.2086689565698114e+00  1.2086007260017213e+00  1.2084193723117029e+00  1.2081231891938544e+00  0.0000000000000000e+00  1.7142809057093633e+00  1.7140143780464419e+00  1.7138391453237261e+00  1.7137414819012724e+00  1.7137187806901524e+00  1.7931115913959759e+00  1.7931224353772393e+00  1.7931945806670606e+00  1.7933261144648871e+00  1.7935085136346960e+00  0.0000000000000000e+00  1.2077609449020181e+00  1.2079783387062080e+00  1.2080921663644821e+00  1.2081203396467695e+00  1.2080629047842164e+00  1.2079156482402396e+00  1.2076789414994413e+00  0.0000000000000000e+00  1.7948363356926034e+00  1.7946524233949697e+00  1.7945389677186740e+00  1.7944759782634110e+00  1.7944637436837256e+00  1.8738548689975736e+00  1.8738563404169535e+00  1.8738940216890254e+00  1.8739743420743575e+00  1.8740800794306751e+00  0.0000000000000000e+00  1.2077176278856459e+00  1.2078419225336141e+00  1.2079131072843869e+00  1.2079283476882106e+00  1.2078825043650452e+00  1.2077522930514515e+00  1.2075694669927655e+00  0.0000000000000000e+00  1.8751473497736377e+00  1.8750748151861860e+00  1.8750284662932064e+00  1.8750034093361865e+00  1.8750010856571184e+00  1.9544648655036008e+00  1.9544602149016845e+00  1.9544702775829004e+00  1.9544889818298294e+00  1.9544627842857942e+00  0.0000000000000000e+00  1.2077990684099909e+00  1.2079693788356374e+00  1.2079606791091122e+00  1.2079607909838526e+00  1.2079396089893626e+00  1.2079463168724662e+00  1.2079682153813101e+00  0.0000000000000000e+00  1.9554362211793215e+00  1.9554074465125177e+00  1.9554244475490798e+00  1.9554309718574425e+00  1.9554355385071640e+00  2.0350372768762535e+00  2.0350291689062461e+00  2.0350138347651066e+00  2.0349687169995283e+00  2.0349171051514388e+00  0.0000000000000000e+00  1.2088950466156974e+00  1.2081236096757837e+00  1.2080128503967762e+00  1.2080150774683198e+00  1.2080246255755134e+00  1.2081635919149054e+00  1.2080738872537415e+00  0.0000000000000000e+00  2.0356487968886743e+00  2.0357800969790403e+00  2.0358325831139847e+00  2.0358552932301532e+00  2.0358617947497097e+00  2.1156392790818668e+00  2.1156350927861243e+00  2.1156180408214933e+00  2.1155920427935095e+00  2.1155776932737993e+00  0.0000000000000000e+00  0.0000000000000000e+00  0.0000000000000000e+00  0.0000000000000000e+00  0.0000000000000000e+00  0.0000000000000000e+00  0.0000000000000000e+00  0.0000000000000000e+00  0.0000000000000000e+00  2.1163060195749908e+00  2.1163110276706552e+00  2.1163155344981059e+00  2.1163282883761791e+00  2.1163335389578610e+00  2.1962959562743229e+00  2.1962725124999984e+00  2.1962678303678973e+00  2.1962608906459762e+00  2.1962327806035420e+00  0.0000000000000000e+00  0.0000000000000000e+00  0.0000000000000000e+00  0.0000000000000000e+00  0.0000000000000000e+00  0.0000000000000000e+00  0.0000000000000000e+00  0.0000000000000000e+00  0.0000000000000000e+00  2.1968618258737367e+00  2.1968285601239330e+00  2.1968311501393796e+00  2.1968384965263743e+00  2.1968329746901647e+00  2.2768906831461995e+00  2.2769308887016360e+00  2.2769434263945376e+00  2.2768868277730676e+00  2.2768754348648437e+00  0.0000000000000000e+00  0.0000000000000000e+00  0.0000000000000000e+00  0.0000000000000000e+00  0.0000000000000000e+00  0.0000000000000000e+00  0.0000000000000000e+00  0.0000000000000000e+00  0.0000000000000000e+00  2.2772881147379587e+00  2.2773215676703806e+00  2.2773309064636815e+00  2.2772751869731511e+00  2.2772666776732731e+00  2.3577035669072681e+00  2.3577858697094487e+00  2.3576515326082994e+00  2.3577086838309280e+00  2.3579034360998921e+00  0.0000000000000000e+00  0.0000000000000000e+00  0.0000000000000000e+00  0.0000000000000000e+00  0.0000000000000000e+00  0.0000000000000000e+00  0.0000000000000000e+00  0.0000000000000000e+00  0.0000000000000000e+00  2.3579184630424672e+00  2.3579867841665556e+00  2.3578498368789367e+00  2.3579022152820621e+00  2.3580882959385172e+00  2.4408565735726651e+00  2.4380155543830493e+00  2.4380268297138601e+00  2.4381150380989203e+00  2.4364439965369060e+00  0.0000000000000000e+00  0.0000000000000000e+00  0.0000000000000000e+00  0.0000000000000000e+00  0.0000000000000000e+00  0.0000000000000000e+00  0.0000000000000000e+00  0.0000000000000000e+00  0.0000000000000000e+00  2.4408062592650746e+00  2.4380196206101545e+00  2.4380287896750197e+00  2.4381142049970270e+00  2.4364718020229339e+00  </DataArray> 
</PointData> 
</Piece>
</UnstructuredGrid>
</VTKFile>