<?xml version="1.0"?>
<VTKFile type="UnstructuredGrid"  version="0.1"  >
<UnstructuredGrid>
<Piece  NumberOfPoints="589" NumberOfCells="1080">
<Points>
<DataArray  type="Float64"  NumberOfComponents="3"  format="ascii">-9 0 0  -8 0 0  -7 0 0  -6 0 0  -5 0 0  -4 0 0  -3 0 0  -2 0 0  -1 0 0  0 0 0  1 0 0  2 0 0  3 0 0  4 0 0  5 0 0  6 0 0  7 0 0  8 0 0  9 0 0  -9 2 0  -8.000001162160654 1.99999871144775 0  -7.000002470475855 1.999997521641242 0  -6.000004183468585 1.999996503470523 0  -5.000006821306975 1.999995665227096 0  -4.000004713683472 1.999996923013213 0  -3.000002401938705 1.999997798793876 0  -2.000001059477224 1.999998482011809 0  -1.000000389682851 1.999999011195285 0  -1.354956509555223e-07 1.999999240120371 0  1.000000083273085 1.999999093057296 0  2.000000629937888 1.999998602356316 0  3.000001764131405 1.999997966007505 0  4.000003593654532 1.999997212081717 0  5.000006110624065 1.999996722850654 0  6.000003718744529 1.999997084500172 0  7.000002186157992 1.999997841453109 0  8.00000102670802 1.999998856241202 0  9 2 0  -9 4 0  -8.000001739699302 3.999997027920829 0  -7.000003322238816 3.999994356746313 0  -6.000004667548025 3.999992287236279 0  -5.000005816519681 3.999991120563082 0  -4.000003107980724 3.999991545057349 0  -3.000001062826422 3.999993516436505 0  -2.00000002961612 3.999996074002111 0  -0.9999998763216513 3.999998091598859 0  -2.273947673001524e-07 3.99999891225751 0  0.9999993926336828 3.999998318729872 0  1.999999456546538 3.999996644952541 0  3.000000427177447 3.999994345407615 0  4.000002411319664 3.999992017454597 0  5.000004973909188 3.99999112842248 0  6.000004000305378 3.999992587792196 0  7.00000287976348 3.999994651574219 0  8.000001522442913 3.999997196608264 0  9 4 0  -9 6 0  -8.000002945869989 5.999994140805225 0  -7.000005122924525 5.999988785219716 0  -6.000005936984094 5.999984459676552 0  -5.000005205083604 5.999981687915578 0  -4.000000537919254 5.999984392400913 0  -2.999998093330623 5.999990096840702 0  -1.999998183298613 5.999996077007218 0  -0.9999993686197717 5.999999441825273 0  -5.878001568150382e-07 6.000000174576098 0  0.9999983950290753 5.999999094057869 0  1.999997800232812 5.999996122521179 0  2.999997957436528 5.99999116345453 0  3.99999949014166 5.999986033334259 0  5.000003504723877 5.999983554128132 0  6.000004869623782 5.999985673456599 0  7.00000452047948 5.999989536714484 0  8.000002678657328 5.999994503572218 0  9 6 0  -9 8 0  -8.000007226953159 7.999989239370545 0  -7.0000123755579 7.999979093647783 0  -6.000013390259738 7.999970417105883 0  -5.000008406742468 7.999964654509797 0  -4.000000186265789 7.999976952919908 0  -3.000000962084682 7.999991419236241 0  -2.000003278528038 7.999998620823404 0  -1.000002948826894 7.999999674548207 0  -6.825230456811954e-07 7.999999993413751 0  1.000001189018057 8.000000577563691 0  2.000001175687021 7.999997594560335 0  2.999998451350587 7.999992343154341 0  3.999998159612287 7.999980063683464 0  5.0000064028129 7.999966370892806 0  6.000012595051981 7.99997178355929 0  7.000012131824046 7.999980007579279 0  8.0000071821351 7.999989692355594 0  9 8 0  -9 10 0  -8.000019820918563 9.999981878736278 0  -7.000036163052797 9.999963526000347 0  -6.000044835876094 9.999944719813488 0  -5.000039929892343 9.999925257463151 0  -4.000027505255241 9.999963500579733 0  -3.000028225946652 9.999996611628317 0  -2.00002203055299 9.999991775357364 0  -1.000010534787893 9.999990224625734 0  -1.810084097433942e-06 9.999989858268378 0  1.000006843360948 9.999989822875367 0  2.000017975864586 9.999989403190348 0  3.000028505636474 10.00000014961085 0  4.00002857024888 9.999969013828352 0  5.00004231394924 9.999928490921084 0  6.00004694132784 9.999946649058709 0  7.000037688366588 9.999964635888388 0  8.000020614955817 9.999982389978632 0  9 10 0  -9 12 0  -8.000046327800321 11.99997544482926 0  -7.000090624215106 11.99994977353923 0  -6.000130591836635 11.99992164952396 0  -5.000163407130223 11.99988920655607 0  -4.000157596182214 11.99995652258776 0  -3.000162248198391 12.00002317667422 0  -2.00011087300371 12.00001503335029 0  -1.000055203236471 12.00001061757678 0  2.043131489791035e-06 12.00000966680008 0  1.000059906424409 12.00001229616146 0  2.0001176782877 12.00001933934832 0  3.000173571773503 12.00003291755504 0  4.00016896987453 11.99996152461956 0  5.000172480353779 11.99988963771181 0  6.000136804206549 11.99992220157781 0  7.000094524270193 11.99995019628443 0  8.000048212404945 11.99997566459281 0  9 12 0  -9 14 0  -8.000080955844783 13.99997347628384 0  -7.000162393631418 13.99994583349546 0  -6.000244945391723 13.99991585723193 0  -5.000329630487795 13.99988215047969 0  -4.000330808693195 13.99995788302326 0  -3.000330237162238 14.00003466565159 0  -2.000216901999105 14.00002338293441 0  -1.000106181810013 14.00001715203806 0  3.429441968402766e-06 14.00001515613164 0  1.000113341208237 14.00001711580411 0  2.000224905776325 14.00002313788362 0  3.000339365394676 14.00003356551411 0  4.000341385582691 13.99995787679072 0  5.000341498182767 13.99988274972744 0  6.000253071689453 13.99991603419973 0  7.000167481683893 13.99994586433161 0  8.000083408102958 13.99997347193837 0  9 14 0  -9 16 0  -8.000113650372949 15.99997598455148 0  -7.000229697758836 15.99995122847502 0  -6.00035075055555 15.99992498856429 0  -5.000479863219454 15.99989653409733 0  -4.000484533111732 15.99995808045798 0  -3.000479491687517 16.00001924128602 0  -2.000312485899641 16.00001152979514 0  -1.000152731227 16.00000675016473 0  3.613730512225293e-06 16.00000482639084 0  1.000160171314318 16.00000568899525 0  2.000320567016856 16.00000931737543 0  3.000488669527943 16.0000157203714 0  4.000494264143275 15.99995516400699 0  5.00048988354385 15.99989456012259 0  6.000357976252238 15.99992368614848 0  7.000234363107428 15.99995042390155 0  8.00011593573416 15.99997559821155 0  9 16 0  -9 18 0  -8.000136751931493 17.9999814553883 0  -7.00027696947944 17.99996255921205 0  -6.000424299654887 17.99994297879035 0  -5.00058275504798 17.99992242391572 0  -4.000589360752437 17.99995744134299 0  -3.000582547034855 17.99999241324766 0  -2.00037908284427 17.99998795307661 0  -1.000185650250005 17.99998492824679 0  2.947081303953666e-06 17.99998335449724 0  1.000191656408596 17.99998320234365 0  2.00038541752918 17.99998440145315 0  3.00058940143037 17.99998682928818 0  4.000596566638088 17.99995306726784 0  5.000590122273374 17.99991943605218 0  6.000429685875609 17.99994089220317 0  7.000280489965416 17.99996123786999 0  8.000138490233025 17.99998081475433 0  9 18 0  -9 20 0  -8.000145985864011 19.99998833228081 0  -7.00029578055773 19.99997662686567 0  -6.000453330903902 19.99996486661025 0  -5.000622858881665 19.99995307637567 0  -4.000630044989575 19.99995662258794 0  -3.000622660466205 19.99996013474592 0  -2.00040557241905 19.99995863690412 0  -1.000199237881886 19.99995730394709 0  1.832059930122362e-06 19.99995619831134 0  1.000202942584538 19.9999553126203 0  2.000409394915324 19.99995457234184 0  3.000626666703699 19.99995383184854 0  4.000634138771701 19.99995178688055 0  5.000627012558839 19.99994983319239 0  6.000456415886968 19.99996254018835 0  7.000297821280446 19.99997512691071 0  8.00014700107617 19.99998759763211 0  8.999999999998691 20 0  -9 22 0  -8.00013997998288 21.99999535972914 0  -7.000283559469776 21.99999091364842 0  -6.000434435694106 21.99998687404894 0  -5.000596499620568 21.99998348964291 0  -4.000603265273381 21.99995563740171 0  -3.00059639295138 21.99992776186593 0  -2.000389066424438 21.99992866137718 0  -1.000191775711906 21.99992877068828 0  5.54722960659041e-07 21.99992816269287 0  1.000192870282441 21.99992684149916 0  2.000390112966798 21.99992474411789 0  3.000597348164013 21.99992173986527 0  4.000604131002684 21.99995106296791 0  5.000597330882753 21.99998044894228 0  6.000435121922716 21.99998466889777 0  7.000284045076361 21.99998947965204 0  8.000140230860916 21.99999465361124 0  9 22 0  -9 24 0  -8.000119571784122 24.0000016102875 0  -7.000242142185424 24.00000357431343 0  -6.000370774291855 24.00000626041288 0  -5.000508659041465 24.00001006601016 0  -4.000514323198702 23.9999546021441 0  -3.000508690180792 23.99989913139919 0  -2.000332434479071 23.99990184548904 0  -1.000164480430337 23.99990310557929 0  -6.626647865103946e-07 23.99990297879514 0  1.000163098420095 23.99990147398358 0  2.00033087934683 23.99989854207406 0  3.000506836395886 23.99989407638819 0  4.000512251386509 23.99995079753748 0  5.000506499428973 24.00000756922752 0  6.000369284715831 24.00000443408074 0  7.000241209568403 24.00000237933097 0  8.000119123338767 24.00000101967164 0  9 24 0  -9 26 0  -8.000087164605425 26.00000644586962 0  -7.000176467797678 26.00001334659482 0  -6.000270087089034 26.00002116859489 0  -5.000370275974517 26.00003040122065 0  -4.000374393405063 25.99995360830022 0  -3.000370481161175 25.99987682022579 0  -2.000242611857801 25.99988084437981 0  -1.000120647455912 25.99988298622 0  -1.652639269861703e-06 25.99988330524432 0  1.000117256068015 25.99988181303922 0  2.000238959184918 25.99987847320515 0  3.000366383248118 25.99987320216502 0  4.000369993405205 25.9999509044073 0  5.000365755597416 26.00002864541563 0  6.000266874942392 26.00001987753433 0  7.000174409782349 26.00001249857377 0  8.000086160319459 26.00000602574613 0  9 26 0  -9 28 0  -8.000046197950796 28.00000946205406 0  -7.000093519273539 28.00001943375133 0  -6.000143105896628 28.00003043434576 0  -5.000196135440931 28.00004300198875 0  -4.00019844429815 27.99995272523163 0  -3.000196541677481 27.99986246299476 0  -2.000129185516238 27.99986737081021 0  -1.000064943415917 27.99987015642344 0  -2.297530901375402e-06 27.99987087488041 0  1.000060244651092 27.99986954072391 0  2.000124172722498 27.99986612763027 0  3.000190995974874 27.99986056915005 0  4.000192549193408 27.99995131691981 0  5.000190103523274 28.00004209491198 0  6.000138788694109 28.00002976533902 0  7.000090738199409 28.00001899334923 0  8.000044836245207 28.000009243
[...]
<PointData  Scalars="f_44-1"> 
<DataArray  type="Float64"  Name="f_44-1"  format="ascii">3.5801251010355765e-04  4.4281069377500928e-05  2.1794438999841702e-05  4.4072427166997474e-05  -4.1351232807525392e-04  0.0000000000000000e+00  0.0000000000000000e+00  0.0000000000000000e+00  0.0000000000000000e+00  0.0000000000000000e+00  0.0000000000000000e+00  0.0000000000000000e+00  0.0000000000000000e+00  0.0000000000000000e+00  3.6632691396146108e-04  4.4329975647657772e-05  2.2133667135892841e-05  4.3938230368130461e-05  -4.2727258305114954e-04  1.5570178122808965e-02  1.5586973763431917e-02  1.5578222104317609e-02  1.5536264936101378e-02  1.5506641397413409e-02  0.0000000000000000e+00  0.0000000000000000e+00  0.0000000000000000e+00  0.0000000000000000e+00  0.0000000000000000e+00  0.0000000000000000e+00  0.0000000000000000e+00  0.0000000000000000e+00  0.0000000000000000e+00  1.5617084449829401e-02  1.5632626458024424e-02  1.5622342802498738e-02  1.5578361909336674e-02  1.5547758498251220e-02  3.1161005628586470e-02  3.1160661977938826e-02  3.1151873967301121e-02  3.1148211089461645e-02  3.1153996276872667e-02  0.0000000000000000e+00  0.0000000000000000e+00  0.0000000000000000e+00  0.0000000000000000e+00  0.0000000000000000e+00  0.0000000000000000e+00  0.0000000000000000e+00  0.0000000000000000e+00  0.0000000000000000e+00  3.1250030267276997e-02  3.1248398914048525e-02  3.1238064468962067e-02  3.1233671228568492e-02  3.1241529617598896e-02  4.6741701226710654e-02  4.6740914366746412e-02  4.6740897600005653e-02  4.6740438310471470e-02  4.6735233474059411e-02  0.0000000000000000e+00  0.0000000000000000e+00  0.0000000000000000e+00  0.0000000000000000e+00  0.0000000000000000e+00  0.0000000000000000e+00  0.0000000000000000e+00  0.0000000000000000e+00  0.0000000000000000e+00  4.6883595503068677e-02  4.6873614409479188e-02  4.6865362519258894e-02  4.6860074463197822e-02  4.6858047397959540e-02  6.2319765769710142e-02  6.2321213824868979e-02  6.2329562380874996e-02  6.2338195822671714e-02  6.2345196482031184e-02  0.0000000000000000e+00  0.0000000000000000e+00  0.0000000000000000e+00  0.0000000000000000e+00  0.0000000000000000e+00  0.0000000000000000e+00  0.0000000000000000e+00  0.0000000000000000e+00  0.0000000000000000e+00  6.2518510996717902e-02  6.2500463331749370e-02  6.2479393165026931e-02  6.2464835783565445e-02  6.2461065519142142e-02  7.7860576074596233e-02  7.7867278165264897e-02  7.7900343602891900e-02  7.7958245709632779e-02  7.8046712865880788e-02  0.0000000000000000e+00  1.8216165064149362e-01  1.8220028909206759e-01  1.8231460090593632e-01  1.8235657720056667e-01  1.8231431099794326e-01  1.8218656031108993e-01  1.8194392787461619e-01  0.0000000000000000e+00  7.8188941037392309e-02  7.8118581952337535e-02  7.8060673649087864e-02  7.8024768975881412e-02  7.8016340630187128e-02  9.3289142846937401e-02  9.3303228368747076e-02  9.3370783840296775e-02  9.3488327845093089e-02  9.3643991862356876e-02  0.0000000000000000e+00  1.8218443882455487e-01  1.8237223356833870e-01  1.8248767915349232e-01  1.8251842288225509e-01  1.8247341712207230e-01  1.8236053829073445e-01  1.8221102590383842e-01  0.0000000000000000e+00  9.3836955367845809e-02  9.3666647979432999e-02  9.3548033528830843e-02  9.3476821422964651e-02  9.3460615206673814e-02  1.0849517035764571e-01  1.0851922475393296e-01  1.0863325382015077e-01  1.0883690390855252e-01  1.0913271663421022e-01  0.0000000000000000e+00  1.8252469522648015e-01  1.8279722054356431e-01  1.8295877656936732e-01  1.8300946938610668e-01  1.8294553832808347e-01  1.8276722571377549e-01  1.8247105260028360e-01  0.0000000000000000e+00  1.0933553653806340e-01  1.0904095565099584e-01  1.0883472797316342e-01  1.0871559741123805e-01  1.0868899592467619e-01  1.2333929068034825e-01  1.2337392281036653e-01  1.2353619112633706e-01  1.2382792161648813e-01  1.2425641838683205e-01  0.0000000000000000e+00  1.8323384344906113e-01  1.8364763548238597e-01  1.8389059782061523e-01  1.8396711659939730e-01  1.8387878754092393e-01  1.8362422533544573e-01  1.8319393653257418e-01  0.0000000000000000e+00  1.2449318913655637e-01  1.2406236560499286e-01  1.2376658129050970e-01  1.2359913949749660e-01  1.2356206008767956e-01  1.3768025589715940e-01  1.3772353442838201e-01  1.3792434989094723e-01  1.3828558098320648e-01  1.3881859773071722e-01  0.0000000000000000e+00  1.8465868342621097e-01  1.8517700592061806e-01  1.8548058084491922e-01  1.8557785146927067e-01  1.8547165144870803e-01  1.8515956088156274e-01  1.8462989394571461e-01  0.0000000000000000e+00  1.3909105005665987e-01  1.3855297551523393e-01  1.3818638832815341e-01  1.3798090661200935e-01  1.3793557766175721e-01  1.5140767449293899e-01  1.5145568118280209e-01  1.5167665713578773e-01  1.5207340700985336e-01  1.5265888804124755e-01  0.0000000000000000e+00  1.8697986222631871e-01  1.8755117755658948e-01  1.8788529797310119e-01  1.8799351433986755e-01  1.8787913996368047e-01  1.8753907224421693e-01  1.8696088664984684e-01  0.0000000000000000e+00  1.5295804546041239e-01  1.5236773611765839e-01  1.5196726326082841e-01  1.5174386444940663e-01  1.5169469617776674e-01  1.6446722236296982e-01  1.6451490464057580e-01  1.6473287059586997e-01  1.6512301658727305e-01  1.6569769187420127e-01  0.0000000000000000e+00  1.9029158275567915e-01  1.9085351931660957e-01  1.9118167414364243e-01  1.9128868737981658e-01  1.9117771172642395e-01  1.9084539947983839e-01  1.9028067513903413e-01  0.0000000000000000e+00  1.6601658833631822e-01  1.6543815612066587e-01  1.6504699222470481e-01  1.6482962028232892e-01  1.6478187136952024e-01  1.7687424092919271e-01  1.7691629617757726e-01  1.7710727106511068e-01  1.7744768190879692e-01  1.7794752284832879e-01  0.0000000000000000e+00  1.9457669442868925e-01  1.9506622192021938e-01  1.9535143807929567e-01  1.9544485982933202e-01  1.9534899354273313e-01  1.9506066700452904e-01  1.9457168482237147e-01  0.0000000000000000e+00  1.7827961545908719e-01  1.7777754174656232e-01  1.7743915722476294e-01  1.7725189408465000e-01  1.7721085734032543e-01  1.8871552893546761e-01  1.8874718562712808e-01  1.8888979708866932e-01  1.8914232780763271e-01  1.8951114064229385e-01  0.0000000000000000e+00  1.9970775345475733e-01  2.0006970826599688e-01  2.0027971009919199e-01  2.0034869731786176e-01  2.0027822712162013e-01  2.0006567515659782e-01  1.9970674297965513e-01  0.0000000000000000e+00  1.8985113243936438e-01  1.8948157068179586e-01  1.8923377584263859e-01  1.8909753613263275e-01  1.8906780473380125e-01  2.0014095247757926e-01  2.0015858503028428e-01  2.0023677141099303e-01  2.0037298686866722e-01  2.0056921775060010e-01  0.0000000000000000e+00  2.0546233123683058e-01  2.0565593234658133e-01  2.0576695334917242e-01  2.0580349212001484e-01  2.0576599604375989e-01  2.0565268440766907e-01  2.0546363469299256e-01  0.0000000000000000e+00  2.0091316198420439e-01  2.0071723903282460e-01  2.0058760380588872e-01  2.0051756392114073e-01  2.0050245376187739e-01  2.1134701993849464e-01  2.1134858436751303e-01  2.1135348314789432e-01  2.1135794801909946e-01  2.1135938093427017e-01  0.0000000000000000e+00  2.1154826596933748e-01  2.1155165653726407e-01  2.1155108647461027e-01  2.1155086661986341e-01  2.1155030520988868e-01  2.1154866885042231e-01  2.1155035670012654e-01  0.0000000000000000e+00  2.1170430350620423e-01  2.1170357268158588e-01  2.1170634859515411e-01  2.1171022551461366e-01  2.1171139128511454e-01  2.2255498076259791e-01  2.2254024843549108e-01  2.2247119619858891e-01  2.2234319204622810e-01  2.2214937058565457e-01  0.0000000000000000e+00  2.1763644456588044e-01  2.1744902748185774e-01  2.1733674316805368e-01  2.1729958742545860e-01  2.1733581924236370e-01  2.1744584871518469e-01  2.1763785196835544e-01  0.0000000000000000e+00  2.2249266733342668e-01  2.2268684426462010e-01  2.2282145666407360e-01  2.2289867992464166e-01  2.2291593426091535e-01  2.3398612818641848e-01  2.3395670942596772e-01  2.3382132165733982e-01  2.3357493959289793e-01  2.3320721754998025e-01  0.0000000000000000e+00  2.2339743022544739e-01  2.2303990832087403e-01  2.2282824628176906e-01  2.2275808349025775e-01  2.2282682997018013e-01  2.2303601305781789e-01  2.2339662669542279e-01  0.0000000000000000e+00  2.3354596668630731e-01  2.3391303405593325e-01  2.3416420807828353e-01  2.3430601738424114e-01  2.3433736124635554e-01  2.4583709461453235e-01  2.4579625465614804e-01  2.4560958501476945e-01  2.4527219429326172e-01  2.4477143575619290e-01  0.0000000000000000e+00  2.2853821159517490e-01  2.2805032389266330e-01  2.2776268967657118e-01  2.2766707815077747e-01  2.2776034449675947e-01  2.2804497376061367e-01  2.2853350919901094e-01  0.0000000000000000e+00  2.4510179636525933e-01  2.4560045755475332e-01  2.4593995916119218e-01  2.4613041717970857e-01  2.4617227718858070e-01  2.5825790475366361e-01  2.5821018073038282e-01  2.5799300027095845e-01  2.5760217318931483e-01  2.5702420565644657e-01  0.0000000000000000e+00  2.3283528205410362e-01  2.3227131769508355e-01  2.3193948657834906e-01  2.3182870765892891e-01  2.3193565321449000e-01  2.3226346250929134e-01  2.3282477183677805e-01  0.0000000000000000e+00  2.5734103511151823e-01  2.5791541455424305e-01  2.5830533071657075e-01  2.5852320471756451e-01  2.5857086499258514e-01  2.7133540280283325e-01  2.7128603726036493e-01  2.7106229184368358e-01  2.7066126689163539e-01  2.7007023827021992e-01  0.0000000000000000e+00  2.3616031787029015e-01  2.3558260160823513e-01  2.3524283105079011e-01  2.3512860137814667e-01  2.3523682533502707e-01  2.3557080826803617e-01  2.3614181192393049e-01  0.0000000000000000e+00  2.7036719580507007e-01  2.7095358123830915e-01  2.7135100287404251e-01  2.7157243895969280e-01  2.7162064897542998e-01  2.8508453377729509e-01  2.8503875971150167e-01  2.8483230953522309e-01  2.8446413296729922e-01  2.8392392318805276e-01  0.0000000000000000e+00  2.3849507761911948e-01  2.3796566013946457e-01  2.3765372793061226e-01  2.3754762914792413e-01  2.3764495929964766e-01  2.3794854634088783e-01  2.3846679185337769e-01  0.0000000000000000e+00  2.8419428049048895e-01  2.8472960557455901e-01  2.8509253533380130e-01  2.8529442509331271e-01  2.8533815458163836e-01  2.9944932406915220e-01  2.9941157905582133e-01  2.9924258982747909e-01  2.9894424208676201e-01  2.9850990935927141e-01  0.0000000000000000e+00  2.3993324572526950e-01  2.3950304149543927e-01  2.3924853566347914e-01  2.3916027162116940e-01  2.3923687819415898e-01  2.3947995010344497e-01  2.3989383164306100e-01  0.0000000000000000e+00  2.9874489214286659e-01  2.9917702643434008e-01  2.9947140073007572e-01  2.9963529054229815e-01  2.9967059300650895e-01  3.1431649365509795e-01  3.1428910346930911e-01  3.1416807821324633e-01  3.1395869013382144e-01  3.1365969544403044e-01  0.0000000000000000e+00  2.4065711420653860e-01  2.4036089767799534e-01  2.4018255588447154e-01  2.4011864052683940e-01  2.4016940686488022e-01  2.4033112140633878e-01  2.4060389572089094e-01  0.0000000000000000e+00  3.1386114051236530e-01  3.1416146044176602e-01  3.1436830154612716e-01  3.1448424656007462e-01  3.1450908985231019e-01  3.2954282219072473e-01  3.2952587222823132e-01  3.2945284127641355e-01  3.2933122541747062e-01  3.2915677682498518e-01  0.0000000000000000e+00  2.4091746311853052e-01  2.4076764979799048e-01  2.4065469614335933e-01  2.4060967346417941e-01  2.4064044914123198e-01  2.4075587101658874e-01  2.4094366023379044e-01  0.0000000000000000e+00  3.2934876919830752e-01  3.2950865226735027e-01  3.2962919600643542e-01  3.2969854430697781e-01  3.2971337165810982e-01  3.4498892066366393e-01  3.4497995168364853e-01  3.4494267946361828e-01  3.4488256288279767e-01  3.4480898252329334e-01  0.0000000000000000e+00  2.4118319495791515e-01  2.4094108071564638e-01  2.4081364471152478e-01  2.4077131964436885e-01  2.4081312791120935e-01  2.4092689168725009e-01  2.4096608413118908e-01  0.0000000000000000e+00  3.4495156046123582e-01  3.4504256998118210e-01  3.4510250986012614e-01  3.4513684834303265e-01  3.4514408547223602e-01  3.6054910024328385e-01  3.6054502439031128e-01  3.6052966530895753e-01  3.6050741397290692e-01  3.6048803309681721e-01  0.0000000000000000e+00  0.0000000000000000e+00  0.0000000000000000e+00  0.0000000000000000e+00  0.0000000000000000e+00  0.0000000000000000e+00  0.0000000000000000e+00  0.0000000000000000e+00  0.0000000000000000e+00  3.6066057735735402e-01  3.6066923949347446e-01  3.6067915088587532e-01  3.6068828831532901e-01  3.6069005630570894e-01  3.7615909222450328e-01  3.7615679313867567e-01  3.7615105839409302e-01  3.7614211666516789e-01  3.7613126454462859e-01  0.0000000000000000e+00  0.0000000000000000e+00  0.0000000000000000e+00  0.0000000000000000e+00  0.0000000000000000e+00  0.0000000000000000e+00  0.0000000000000000e+00  0.0000000000000000e+00  0.0000000000000000e+00  3.7628002023779539e-01  3.7627542653059370e-01  3.7627553615951564e-01  3.7627592714164215e-01  3.7627527258850746e-01  3.9178329392545058e-01  3.9179127369123579e-01  3.9178685330972562e-01  3.9177615207502725e-01  3.9177405597972653e-01  0.0000000000000000e+00  0.0000000000000000e+00  0.0000000000000000e+00  0.0000000000000000e+00  0.0000000000000000e+00  0.0000000000000000e+00  0.0000000000000000e+00  0.0000000000000000e+00  0.0000000000000000e+00  3.9186999641412962e-01  3.9187625297978296e-01  3.9187309017857896e-01  3.9186444784341778e-01  3.9186413174745111e-01  4.0748557511525313e-01  4.0745594546956099e-01  4.0741181890199912e-01  4.0740148216312122e-01  4.0741719060723780e-01  0.0000000000000000e+00  0.0000000000000000e+00  0.0000000000000000e+00  0.0000000000000000e+00  0.0000000000000000e+00  0.0000000000000000e+00  0.0000000000000000e+00  0.0000000000000000e+00  0.0000000000000000e+00  4.0752579900743319e-01  4.0749755275337390e-01  4.0745616618457042e-01  4.0744793314244782e-01  4.0746541266062231e-01  4.2347623497334419e-01  4.2299944711344911e-01  4.2302039998453589e-01  4.2299873896882872e-01  4.2267306982804048e-01  0.0000000000000000e+00  0.0000000000000000e+00  0.0000000000000000e+00  0.0000000000000000e+00  0.0000000000000000e+00  0.0000000000000000e+00  0.0000000000000000e+00  0.0000000000000000e+00  0.0000000000000000e+00  4.2345843142414974e-01  4.2299932276296343e-01  4.2302082994237528e-01  4.2299877221599635e-01  4.2268335681428454e-01  </DataArray> 
</PointData> 
</Piece>
</UnstructuredGrid>
</VTKFile>