<?xml version="1.0"?>
<VTKFile type="UnstructuredGrid"  version="0.1"  >
<UnstructuredGrid>
<Piece  NumberOfPoints="589" NumberOfCells="1080">
<Points>
<DataArray  type="Float64"  NumberOfComponents="3"  format="ascii">-9 0 0  -8 0 0  -7 0 0  -6 0 0  -5 0 0  -4 0 0  -3 0 0  -2 0 0  -1 0 0  0 0 0  1 0 0  2 0 0  3 0 0  4 0 0  5 0 0  6 0 0  7 0 0  8 0 0  9 0 0  -9 2 0  -8.000002844324046 1.999996113030054 0  -7.000005984959628 1.999992658546336 0  -6.000010058785159 1.999989982238844 0  -5.000016472105029 1.999988217985485 0  -4.00001029257062 1.999991329491143 0  -3.000003834915134 1.999994031310136 0  -2.000000519282169 1.999996459126915 0  -0.9999996202782486 1.999998371686081 0  -2.300410045161165e-07 1.999999215244664 0  0.9999990384037949 1.999998664403934 0  1.999999524318293 1.999996857625948 0  3.000002134919443 1.999994622099409 0  4.000007161209144 1.999992199918066 0  5.000014324756884 1.999991153454958 0  6.000008635600096 1.999991647193882 0  7.000005106840867 1.999993607539877 0  8.000002424240627 1.999996553532588 0  9 2 0  -9 4 0  -8.000004503377996 3.999990496197184 0  -7.000008237156456 3.999982204450362 0  -6.000010759573647 3.999976316294863 0  -5.000012178205242 3.999973977800331 0  -4.000003470711208 3.999975334942902 0  -2.999997455691128 3.999982565816051 0  -1.999995498305259 3.999991959254251 0  -0.9999970635341154 3.999999489158818 0  -5.667511354038841e-07 4.0000025493887 0  0.9999958332870977 4.000000266209304 0  1.999993943816727 3.999993989483003 0  2.999995561729711 3.9999854732339 0  4.000001206375996 3.999976937011538 0  5.000009498052765 3.999974124850557 0  6.000008629574739 3.999977428009266 0  7.000006829018381 3.999983272576073 0  8.000003815007009 3.999991105252874 0  9 4 0  -9 6 0  -8.000009240734993 5.999980031513727 0  -7.000015334797928 5.999962136329192 0  -6.000015875526712 5.999948452022916 0  -5.000010165460489 5.999941039307653 0  -3.99999366741495 5.999951612743458 0  -2.999985922739649 5.999973671023557 0  -1.999988331753066 5.99999678139049 0  -0.9999950436774616 6.000009655340972 0  -1.838444586179194e-06 6.000012306083928 0  0.9999921267841559 6.000008197459268 0  1.999987671816605 5.999996811824697 0  2.999986285420379 5.999977626611905 0  3.999990471626919 5.999957777659163 0  5.000004462365275 5.99994808142886 0  6.000012351873035 5.999953043493397 0  7.000013404929384 5.999964985524528 0  8.000008409617946 5.999981409031583 0  9 6 0  -9 8 0  -8.00002656453276 7.999961275289285 0  -7.000044645180649 7.999925226475228 0  -6.000045994365031 7.999895503124397 0  -5.00002349063336 7.999878145590839 0  -3.999992149112763 7.999926661208892 0  -2.999997422723518 7.999983682009557 0  -2.000008668186708 8.000011562829243 0  -1.000009284003543 8.00001488005754 0  -2.007286175044775e-06 8.00001584458203 0  1.000003587063094 8.000018515145731 0  2.000001887531996 8.000007009941227 0  2.999989030203279 7.999987291662704 0  3.999985185943157 7.99993895178611 0  5.000015889442507 7.999884551237717 0  6.000043418779486 7.999900741490707 0  7.000044172927248 7.999928774397726 0  8.000026660253411 7.999963044361122 0  9 8 0  -9 10 0  -8.000077815690881 9.999931822110492 0  -7.000140868945554 9.999863024991562 0  -6.000171516541279 9.99979310779449 0  -5.000145152258139 9.999721841674347 0  -4.000095826836312 9.999877538910237 0  -3.000103012346989 10.00001161681475 0  -2.000082316219401 9.999989098990808 0  -1.000038686775759 9.999981878725995 0  -6.418274229764629e-06 9.999980130786113 0  1.000025545356008 9.999980226322561 0  2.000067742496857 9.999979275445817 0  3.000105464020967 10.0000261699493 0  4.000101891367339 9.99990049443338 0  5.000157161652893 9.99973515199747 0  6.000181569400396 9.999801082061918 0  7.000147997474725 9.999867622456026 0  8.000081494138191 9.999933941723119 0  9 10 0  -9 12 0  -8.00018807909478 11.99990485981551 0  -7.000366654314587 11.99980532728566 0  -6.000524970341503 11.99969614862545 0  -5.000649722799902 11.99956999290655 0  -4.000624689900638 11.99985246129329 0  -3.000646670377957 12.00013217588759 0  -2.000445365541538 12.00009814656429 0  -1.000222091892811 12.00007955694707 0  9.54743945877186e-06 12.00007558018953 0  1.000243671084327 12.00008676260386 0  2.000475420948962 12.00011647581567 0  3.000694960092275 12.00017320317646 0  4.000672276115161 11.99987420173965 0  5.000687961457179 11.99957285721204 0  6.000551555903956 11.99969901135087 0  7.00038350608139 11.99980737356836 0  8.000196265619305 11.99990589458326 0  9 12 0  -9 14 0  -8.00033628110643 13.99989548252582 0  -7.000673353702368 13.99978624108502 0  -6.001012468878657 13.99966713699593 0  -5.001356112287318 13.99953222246607 0  -4.001359568124183 13.9998608129688 0  -3.001360819316207 14.00019363130184 0  -2.000896434546587 14.00014546446555 0  -1.000439024136481 14.00011880921332 0  1.559171487206181e-05 14.00011041613687 0  1.000471400796941 14.00011920406545 0  2.000932150753194 14.00014566059559 0  3.001400919782907 14.00019124548709 0  4.001405721460748 13.99986216090405 0  5.00140760279007 13.99953520534078 0  6.001047937454704 13.9996681678924 0  7.000695670646487 13.9997865250363 0  8.000347071167184 13.99989552928039 0  9 14 0  -9 16 0  -8.000481212796698 15.99990501132417 0  -7.00097171124029 15.99980662711262 0  -6.001481578775776 15.99970139956615 0  -5.002022570577906 15.99958583972648 0  -4.002041570071389 15.99986481665906 0  -3.002022950379409 16.0001422645249 0  -2.001319874304154 16.00010681914829 0  -1.000644896811077 16.00008507950226 0  1.686539758929508e-05 16.00007658811719 0  1.000679488550849 16.00008103005948 0  2.001357062745657 16.0000983906692 0  3.002064586595643 16.00012888404614 0  4.002085627180054 15.99985329523223 0  5.002067945974123 15.99957747416499 0  6.001514419903502 15.99969578520662 0  7.000992981198344 15.99980311565355 0  8.000491653278344 15.99990331255547 0  9 16 0  -9 18 0  -8.000588893075991 17.99992812470273 0  -7.001192396197173 17.99985439746849 0  -6.001825877575799 17.99977700785341 0  -5.002506232083859 17.99969424358155 0  -4.002534836280703 17.99986533143944 0  -3.002506849544628 18.00003618264057 0  -2.001631260399297 18.00001341794133 0  -1.000798068466399 17.99999842595746 0  1.468739795864899e-05 17.99999109517803 0  1.000827913917247 17.99999124811094 0  2.001662489740167 17.99999865330773 0  3.0025402768799 18.00001298319745 0  4.002569941768034 17.9998464849141 0  5.002542191712507 17.99968048561312 0  6.001852208297326 17.99976734910064 0  7.001209632355448 17.99984825533081 0  8.000597413380577 17.99992513890351 0  9 18 0  -9 20 0  -8.000638032437502 19.99995864376198 0  -7.001292969371909 19.9999168192861 0  -6.001982357758459 19.99987411961259 0  -5.002725031906743 19.99983026217856 0  -4.002757521541807 19.99986474170908 0  -3.002725196843969 19.99989899644065 0  -2.001773437261199 19.99988897363091 0  -1.000869675988099 19.99988117698023 0  1.061805977042668e-05 19.99987571675516 0  1.000891103661985 19.99987250466228 0  2.001795425124287 19.9998712607802 0  3.002748073804772 19.99987149776342 0  4.002780959285633 19.9998427686139 0  5.002748842780342 19.99981439973222 0  6.002000016058736 19.99986274782683 0  7.001304641226776 19.99990948823511 0  8.000643837086459 19.99995505306439 0  8.999999999994792 20.0000000000031 0  -9 22 0  -8.000619461663112 21.9999910333885 0  -7.001255540897757 21.99998274070946 0  -6.001925367547178 21.99997586166898 0  -5.002647094492723 21.99997126859683 0  -4.002678729767666 21.99986287365681 0  -3.002647135857842 21.99975426715048 0  -2.001724002234142 21.99975563920161 0  -1.00084759569632 21.99975459847906 0  5.781321295398771e-06 21.99975136198118 0  1.000859127460143 21.9997459030361 0  2.001735429196585 21.99973795613738 0  3.002658347860743 21.9997270128236 0  4.002689674098449 21.99984120639637 0  5.002657930778817 21.9999556441279 0  6.001933681797625 21.9999645751943 0  7.001261166182731 21.99997542088699 0  8.00062229746854 21.99998743468237 0  9 22 0  -9 24 0  -8.000534327229825 24.00002072685144 0  -7.001082924660957 24.00004300678591 0  -6.001660446700296 24.00006845812847 0  -5.002282305148306 24.00009883033809 0  -4.002309415716137 23.9998600286381 0  -3.002282435584506 23.99962106963689 0  -2.001488026598019 23.99963193965683 0  -1.000733567083364 23.99963678778195 0  1.076586571663313e-06 23.99963588152183 0  1.000735516606028 23.99962923655016 0  2.001489353639518 23.99961661804968 0  3.002282687237087 23.99959753927893 0  4.002308743871708 23.99984140538303 0  5.00228119292634 24.00008545569036 0  6.001660094799983 24.00005874136988 0  7.001082913749349 24.00003667904265 0  8.000534387025292 24.00001760806942 0  9 24 0  -9 26 0  -8.000392006803462 26.00004420946185 0  -7.00079440449809 26.00009058845603 0  -6.001217842552857 26.00014137024556 0  -5.0016734710959 26.0001989167617 0  -4.001693330909169 25.99985651755801 0  -3.001673864441891 25.99951401745109 0  -2.001092605912169 25.99953229435296 0  -1.000540435148702 25.99954196065511 0  -2.798603200583734e-06 25.99954332144683 0  1.000534509023387 25.99953642865723 0  2.001085680108614 25.99952108372002 0  3.001665234066754 25.99949683620021 0  4.001683311554436 25.9998429641777 0  5.001662775840406 26.00018921611824 0  6.001210522838593 26.00013429951684 0  7.000789852231203 26.00008597245305 0  8.000389827146559 26.00004193084695 0  9 26 0  -9 28 0  -8.000208001880525 28.00005901583791 0  -7.000421500827966 28.00012055986948 0  -6.000646129211745 28.00018722314676 0  -5.000887767660745 28.0002617228707 0  -4.000898575334493 27.99985267911292 0  -3.000888547058753 27.99944360059341 0  -2.000581178132945 27.99946705625624 0  -1.000289324914089 27.99948032248053 0  -5.341425160364372e-06 27.99948373810258 0  1.000278235362672 27.99947739151709 0  2.000568856245835 27.99946112089903 0  3.000874129860894 27.99943451426936 0  4.000882491159483 27.99984553253185 0  5.000870870958776 28.00025662809268 0  6.000634294888108 28.00018350215305 0  7.000414003804068 28.00011812699337 0  8.0002043695
[...]
<PointData  Scalars="f_44-1"> 
<DataArray  type="Float64"  Name="f_44-1"  format="ascii">7.4374450186166514e-04  7.7838753145039236e-05  4.5775581919412615e-05  1.0085135614660793e-04  -8.9282349476231787e-04  0.0000000000000000e+00  0.0000000000000000e+00  0.0000000000000000e+00  0.0000000000000000e+00  0.0000000000000000e+00  0.0000000000000000e+00  0.0000000000000000e+00  0.0000000000000000e+00  0.0000000000000000e+00  7.5851101859627341e-04  7.7871174586942749e-05  4.6332210218066976e-05  1.0054450045788338e-04  -9.1580246321113520e-04  3.4077534648460410e-02  3.4115210650325391e-02  3.4099120683859466e-02  3.4008644772204527e-02  3.3955597004181798e-02  0.0000000000000000e+00  0.0000000000000000e+00  0.0000000000000000e+00  0.0000000000000000e+00  0.0000000000000000e+00  0.0000000000000000e+00  0.0000000000000000e+00  0.0000000000000000e+00  0.0000000000000000e+00  3.4194044617070367e-02  3.4231042833836968e-02  3.4213455222690814e-02  3.4120827233911917e-02  3.4067954074236920e-02  6.8205753860291388e-02  6.8203405034528347e-02  6.8183071279789120e-02  6.8174823914309152e-02  6.8185572336596945e-02  0.0000000000000000e+00  0.0000000000000000e+00  0.0000000000000000e+00  0.0000000000000000e+00  0.0000000000000000e+00  0.0000000000000000e+00  0.0000000000000000e+00  0.0000000000000000e+00  0.0000000000000000e+00  6.8432381261973235e-02  6.8428468377318946e-02  6.8406933141773305e-02  6.8399576334566059e-02  6.8416236227620039e-02  1.0230909663036192e-01  1.0230613423082190e-01  1.0230322768849627e-01  1.0229846465065490e-01  1.0228278261828642e-01  0.0000000000000000e+00  0.0000000000000000e+00  0.0000000000000000e+00  0.0000000000000000e+00  0.0000000000000000e+00  0.0000000000000000e+00  0.0000000000000000e+00  0.0000000000000000e+00  0.0000000000000000e+00  1.0266067189141857e-01  1.0263956861502006e-01  1.0262616570141889e-01  1.0261893570864387e-01  1.0261473186651958e-01  1.3642510932736160e-01  1.3642385233156301e-01  1.3642771913652094e-01  1.3642368571681646e-01  1.3641774434532200e-01  0.0000000000000000e+00  0.0000000000000000e+00  0.0000000000000000e+00  0.0000000000000000e+00  0.0000000000000000e+00  0.0000000000000000e+00  0.0000000000000000e+00  0.0000000000000000e+00  0.0000000000000000e+00  1.3686939953129323e-01  1.3684496136975696e-01  1.3681834312592844e-01  1.3680259909181344e-01  1.3679906315596757e-01  1.7051230464810385e-01  1.7051434933510079e-01  1.7054277599194206e-01  1.7060366815862174e-01  1.7072539264847289e-01  0.0000000000000000e+00  4.8327308468867919e-01  4.8326545157755435e-01  4.8344387258984639e-01  4.8350142203241536e-01  4.8345110981186201e-01  4.8325551927971488e-01  4.8274083680791763e-01  0.0000000000000000e+00  1.7108304430565172e-01  1.7101376523319162e-01  1.7096136861181610e-01  1.7093484997898156e-01  1.7093070311159594e-01  2.0450401286067121e-01  2.0450616760241286e-01  2.0454681567188096e-01  2.0462422125106172e-01  2.0471050084571990e-01  0.0000000000000000e+00  4.8340667574512258e-01  4.8358823438914772e-01  4.8369285344221313e-01  4.8370860372906038e-01  4.8366476252390084e-01  4.8356625977463730e-01  4.8349908008710724e-01  0.0000000000000000e+00  2.0517881411303032e-01  2.0506909051013270e-01  2.0501151359925449e-01  2.0497842673924438e-01  2.0497532838550364e-01  2.3834590855374960e-01  2.3834765021069465e-01  2.3840131831034683e-01  2.3850531357872595e-01  2.3865678334232693e-01  0.0000000000000000e+00  4.8401005050856072e-01  4.8412706231638819e-01  4.8418787355084836e-01  4.8420142186897241e-01  4.8415562293824926e-01  4.8404847438816029e-01  4.8388117348174736e-01  0.0000000000000000e+00  2.3915618595659305e-01  2.3902918131113635e-01  2.3894544582159799e-01  2.3889909326298370e-01  2.3889640991133801e-01  2.7198363066915254e-01  2.7198580853976423e-01  2.7205450285635469e-01  2.7218883460738152e-01  2.7238607392182868e-01  0.0000000000000000e+00  4.8462798355236825e-01  4.8481937742297398e-01  4.8492563133062877e-01  4.8495073437697811e-01  4.8489458355788845e-01  4.8475616259163101e-01  4.8453451250809615e-01  0.0000000000000000e+00  2.7301657129399126e-01  2.7283130710807985e-01  2.7271117091830871e-01  2.7264785464779973e-01  2.7264445786077457e-01  3.0536103431573580e-01  3.0536442887162768e-01  3.0544682245062410e-01  3.0560797795757860e-01  3.0584950477850814e-01  0.0000000000000000e+00  4.8560750119858248e-01  4.8584543140138742e-01  4.8597994321422572e-01  4.8601619797210827e-01  4.8595559602753297e-01  4.8579657414522048e-01  4.8553640633562434e-01  0.0000000000000000e+00  3.0664357919365010e-01  3.0640164437201134e-01  3.0624349505845150e-01  3.0616168362904378e-01  3.0615633023677524e-01  3.3843137914192828e-01  3.3843620250531770e-01  3.3852679527395241e-01  3.3870315070995405e-01  3.3896948222768358e-01  0.0000000000000000e+00  4.8700311378471450e-01  4.8726741070161983e-01  4.8741914544910153e-01  4.8746346560506215e-01  4.8740257463819353e-01  4.8723457207825965e-01  4.8695434941103533e-01  0.0000000000000000e+00  3.3992508405325750e-01  3.3965052549444624e-01  3.3947013599694131e-01  3.3937708480253576e-01  3.3937010195450845e-01  3.7117069761810145e-01  3.7117657419303784e-01  3.7126677346071030e-01  3.7144100813413272e-01  3.7170463848636431e-01  0.0000000000000000e+00  4.8886254922441447e-01  4.8912496625784330e-01  4.8927729442838364e-01  4.8932407926532995e-01  4.8926767185459114e-01  4.8910601867198039e-01  4.8883331157657800e-01  0.0000000000000000e+00  3.7281181362038152e-01  3.7253333088472784e-01  3.7234950082722845e-01  3.7225479938618211e-01  3.7224680915316188e-01  4.0358698123410747e-01  4.0359316565167447e-01  4.0367324597482829e-01  4.0382637496495283e-01  4.0405790930749819e-01  0.0000000000000000e+00  4.9118114015291431e-01  4.9141186579265239e-01  4.9154694286349110e-01  4.9158990938125646e-01  4.9154279118377758e-01  4.9140362660946596e-01  4.9116695209083294e-01  0.0000000000000000e+00  4.0529461311487008e-01  4.0504320433254493e-01  4.0487643508935700e-01  4.0479058962516073e-01  4.0478247025106184e-01  4.3572292963462045e-01  4.3572853392925814e-01  4.3578938744541684e-01  4.3590396874068948e-01  4.3607674078141118e-01  0.0000000000000000e+00  4.9390225509027774e-01  4.9407460302866185e-01  4.9417642572297427e-01  4.9420980527382946e-01  4.9417618100045468e-01  4.9407393398733951e-01  4.9389874418765362e-01  0.0000000000000000e+00  4.3741199933734870e-01  4.3721588460356459e-01  4.3708495786494528e-01  4.3701764160911027e-01  4.3701030776506788e-01  4.6765269493924544e-01  4.6765687432243247e-01  4.6769139261659287e-01  4.6775407491731036e-01  4.6784782385898588e-01  0.0000000000000000e+00  4.9692422665300146e-01  4.9701794272057181e-01  4.9707426243362246e-01  4.9709349552939069e-01  4.9707635047937504e-01  4.9702176489559374e-01  4.9692707485395343e-01  0.0000000000000000e+00  4.6924444340336852e-01  4.6912532911938676e-01  4.6904476518481131e-01  4.6900347369082562e-01  4.6899771536356305e-01  4.9947397842088409e-01  4.9947606717947352e-01  4.9948010013063548e-01  4.9948336109449143e-01  4.9948681194236744e-01  0.0000000000000000e+00  5.0011101438279970e-01  5.0011472774250232e-01  5.0011850635693311e-01  5.0012073912412347e-01  5.0012136949888186e-01  5.0012005184508268e-01  5.0011599912096472e-01  0.0000000000000000e+00  5.0090387894077859e-01  5.0087444862356778e-01  5.0085283954096760e-01  5.0084200384518340e-01  5.0083838317506768e-01  5.3129701822631681e-01  5.3129661409272733e-01  5.3126948470373359e-01  5.3121255002898904e-01  5.3112471929377170e-01  0.0000000000000000e+00  5.0330724689675721e-01  5.0321980548652245e-01  5.0316997449448364e-01  5.0315433797807707e-01  5.0317208968306659e-01  5.0322369044639614e-01  5.0331019732629834e-01  0.0000000000000000e+00  5.3252017830928766e-01  5.3258280328313112e-01  5.3262195428020875e-01  5.3264249282610332e-01  5.3264129267807825e-01  5.6323210122667933e-01  5.6322909931952136e-01  5.6317367057194390e-01  5.6306259157756100e-01  5.6289284826855090e-01  0.0000000000000000e+00  5.0635572604992807e-01  5.0618636019050833e-01  5.0608794983338623e-01  5.0605553953410709e-01  5.0608775221788560e-01  5.0618583322158672e-01  5.0635245124100292e-01  0.0000000000000000e+00  5.6422605672709081e-01  5.6437275787581398e-01  5.6446767460407909e-01  5.6451699140185418e-01  5.6451821373684197e-01  5.9537716955725273e-01  5.9537175848042201e-01  5.9529407064272910e-01  5.9514099541917942e-01  5.9490792401547798e-01  0.0000000000000000e+00  5.0911553797508624e-01  5.0888275617749001e-01  5.0874616725020816e-01  5.0869988521196952e-01  5.0874212073112024e-01  5.0887478115296236e-01  5.0910176369147053e-01  0.0000000000000000e+00  5.9614219007530200e-01  5.9635579076728107e-01  5.9649545924752601e-01  5.9656786837494347e-01  5.9657127409920552e-01  6.2780700183073401e-01  6.2779961917462923e-01  6.2770814520958851e-01  6.2752988568821910e-01  6.2725906466946113e-01  0.0000000000000000e+00  5.1147873218250761e-01  5.1120800522555931e-01  5.1104767518864402e-01  5.1099173303615208e-01  5.1103823134579052e-01  5.1118946535937682e-01  5.1145012761387065e-01  0.0000000000000000e+00  6.2836405782306348e-01  6.2862045699960478e-01  6.2878936383102257e-01  6.2887690060110291e-01  6.2888208405178470e-01  6.6056520908939975e-01  6.6055648267254585e-01  6.6046101475981500e-01  6.6027688275541496e-01  6.5999762172566012e-01  0.0000000000000000e+00  5.1338317643857978e-01  5.1310347624095831e-01  5.1293583864293268e-01  5.1287513347438674e-01  5.1291951964367510e-01  5.1307118626269477e-01  5.1333525947646297e-01  0.0000000000000000e+00  6.6095193423557275e-01  6.6122334194071652e-01  6.6140363306635863e-01  6.6149719655674555e-01  6.6150367099124574e-01  6.9366047073318737e-01  6.9365107947100224e-01  6.9356120706663649e-01  6.9339000057538636e-01  6.9313087208627921e-01  0.0000000000000000e+00  5.1481930371833329e-01  5.1455887419419077e-01  5.1439968982302631e-01  5.1433912072721188e-01  5.1437563874203152e-01  5.1451064837385851e-01  5.1474919625515991e-01  0.0000000000000000e+00  6.9392520147209824e-01  6.9418409741600662e-01  6.9435830684708821e-01  6.9444912815460458e-01  6.9445644672073881e-01  7.2706697954420996e-01  7.2705781335792807e-01  7.2698198628971167e-01  7.2684137752807809e-01  7.2662856851549928e-01  0.0000000000000000e+00  5.1583184343326038e-01  5.1560972073967037e-01  5.1547098702416183e-01  5.1541482087187640e-01  5.1544024858339477e-01  5.1554716605367201e-01  5.1573939976038685e-01  0.0000000000000000e+00  7.2726097373762277e-01  7.2748539644780974e-01  7.2764000639227211e-01  7.2772132709624715e-01  7.2772918925663321e-01  7.6073337025714871e-01  7.6072419426192117e-01  7.6066338744680762e-01  7.6055627746323984e-01  7.6039745370080591e-01  0.0000000000000000e+00  5.1649023876100986e-01  5.1632254821155210e-01  5.1621516487258190e-01  5.1616933294040579e-01  5.1618304745991606e-01  5.1624431334323428e-01  5.1636211462525372e-01  0.0000000000000000e+00  7.6089788003352055e-01  7.6108192803216501e-01  7.6120934836611109e-01  7.6127734262700875e-01  7.6128551814137557e-01  7.9460141480363156e-01  7.9459250713908502e-01  7.9454641754458766e-01  7.9446744333646047e-01  7.9432839365725660e-01  0.0000000000000000e+00  5.1687449912872008e-01  5.1680690564360388e-01  5.1670841280856394e-01  5.1666460270578229e-01  5.1668039533862453e-01  5.1678490802519750e-01  5.1696614562711196e-01  0.0000000000000000e+00  7.9480076413742740e-01  7.9491461707587030e-01  7.9501285566033175e-01  7.9506624465710019e-01  7.9507422730340360e-01  8.2861908522082384e-01  8.2861095247896877e-01  8.2857557716689734e-01  8.2850955427924144e-01  8.2842272419696295e-01  0.0000000000000000e+00  5.1763145676260203e-01  5.1711843414330783e-01  5.1692389588984144e-01  5.1687361505621043e-01  5.1693076644217339e-01  5.1710775114925611e-01  5.1710091162491123e-01  0.0000000000000000e+00  8.2878328871600637e-01  8.2892192917107788e-01  8.2899582162016605e-01  8.2903267667016189e-01  8.2903876603563076e-01  8.6274202980236037e-01  8.6273650596767182e-01  8.6271636697702225e-01  8.6268398486424280e-01  8.6265396027616692e-01  0.0000000000000000e+00  0.0000000000000000e+00  0.0000000000000000e+00  0.0000000000000000e+00  0.0000000000000000e+00  0.0000000000000000e+00  0.0000000000000000e+00  0.0000000000000000e+00  0.0000000000000000e+00  8.6310269896491421e-01  8.6310402281498233e-01  8.6310730466423569e-01  8.6311593821804888e-01  8.6311704100719555e-01  8.9692802270305960e-01  8.9692171673583188e-01  8.9691287066656911e-01  8.9689765827342438e-01  8.9687464894856650e-01  0.0000000000000000e+00  0.0000000000000000e+00  0.0000000000000000e+00  0.0000000000000000e+00  0.0000000000000000e+00  0.0000000000000000e+00  0.0000000000000000e+00  0.0000000000000000e+00  0.0000000000000000e+00  8.9725672669638823e-01  8.9724115700790119e-01  8.9723816202971873e-01  8.9723700268891582e-01  8.9723474534569181e-01  9.3112717136450751e-01  9.3114515159283395e-01  9.3113934880550375e-01  9.3111633952216200e-01  9.3111135888550156e-01  0.0000000000000000e+00  0.0000000000000000e+00  0.0000000000000000e+00  0.0000000000000000e+00  0.0000000000000000e+00  0.0000000000000000e+00  0.0000000000000000e+00  0.0000000000000000e+00  0.0000000000000000e+00  9.3135900348966849e-01  9.3137122821235652e-01  9.3136529297771964e-01  9.3134445628229134e-01  9.3134206281060972e-01  9.6547638732100105e-01  9.6543507344376178e-01  9.6534522994409189e-01  9.6533256612014628e-01  9.6537710975398727e-01  0.0000000000000000e+00  0.0000000000000000e+00  0.0000000000000000e+00  0.0000000000000000e+00  0.0000000000000000e+00  0.0000000000000000e+00  0.0000000000000000e+00  0.0000000000000000e+00  0.0000000000000000e+00  9.6559048424044647e-01  9.6554824684267693e-01  9.6546116703136553e-01  9.6545026417126212e-01  9.6549540563681957e-01  1.0005316321662547e+00  9.9945823700564562e-01  9.9950448790298518e-01  9.9947912593015475e-01  9.9877827096645522e-01  0.0000000000000000e+00  0.0000000000000000e+00  0.0000000000000000e+00  0.0000000000000000e+00  0.0000000000000000e+00  0.0000000000000000e+00  0.0000000000000000e+00  0.0000000000000000e+00  0.0000000000000000e+00  1.0005006984190887e+00  9.9945850814353887e-01  9.9950527375515508e-01  9.9947906581944801e-01  9.9879681907756768e-01  </DataArray> 
</PointData> 
</Piece>
</UnstructuredGrid>
</VTKFile>