<?xml version="1.0"?>
<VTKFile type="UnstructuredGrid"  version="0.1"  >
<UnstructuredGrid>
<Piece  NumberOfPoints="589" NumberOfCells="1080">
<Points>
<DataArray  type="Float64"  NumberOfComponents="3"  format="ascii">-9 0 0  -8 0 0  -7 0 0  -6 0 0  -5 0 0  -4 0 0  -3 0 0  -2 0 0  -1 0 0  0 0 0  1 0 0  2 0 0  3 0 0  4 0 0  5 0 0  6 0 0  7 0 0  8 0 0  9 0 0  -9 2 0  -8.000004359932742 1.999993577726676 0  -7.000009137086741 1.999987938179971 0  -6.00001531258264 1.99998371610816 0  -5.000025129664976 1.999981187479557 0  -4.000015010930573 1.999985981463419 0  -3.000004601267847 1.999990475519931 0  -1.999999493823952 1.999994672228403 0  -0.999998575537688 1.99999799160426 0  -2.786539209718215e-07 1.999999461221551 0  0.999997811330234 1.99999849349635 0  1.999998032179745 1.999995337204069 0  3.000001947685012 1.999991475703087 0  4.000010024095844 1.999987386016222 0  5.000021675973803 1.999985855948023 0  6.000013019362439 1.999986380488348 0  7.000007721076878 1.999989469036191 0  8.000003682522101 1.999994292557198 0  9 2 0  -9 4 0  -8.00000705092299 3.999984024778207 0  -7.000012680812914 3.999970206633682 0  -6.000016058791093 3.999960658537424 0  -5.000017355028416 3.999957394901963 0  -4.000002697069377 3.999959668701466 0  -2.999992836514762 3.999972263241468 0  -1.999990188824554 3.999988632377624 0  -0.9999938005580937 4.000001803191052 0  -8.246457310304709e-07 4.000007151374383 0  0.9999919875827227 4.000003119578478 0  1.999987816954598 3.999992111552736 0  2.999989838411045 3.999977218610404 0  3.999999011147699 3.99996231834792 0  5.000013018016873 3.999957574679637 0  6.000012605373854 3.999962505089656 0  7.000010403175118 3.999971998415889 0  8.000005940823188 3.999985049673144 0  9 4 0  -9 6 0  -8.000015425752975 5.999965844642775 0  -7.000025232162861 5.999935395929692 0  -6.000025131974279 5.999912464114901 0  -5.000013898885394 5.999900698035707 0  -3.999985412142254 5.999919383768082 0  -2.999972427455859 5.999958283593728 0  -1.999977488388718 5.99999903332006 0  -0.9999901625251064 6.000021679877705 0  -2.96283712082239e-06 6.000026275178743 0  0.9999855671758845 6.000019047677788 0  1.999976860167194 5.999998990712329 0  2.999973627986612 5.999965114480866 0  3.999980329471412 5.999930057452859 0  5.000004420873935 5.99991287554857 0  6.00001934959174 5.999920378965943 0  7.000022125592832 5.99994029714666 0  8.000014112579647 5.999968211531019 0  9 6 0  -9 8 0  -8.000046274882546 7.999932843085992 0  -7.000077407953418 7.999870523168471 0  -6.00007873565008 7.999819612197369 0  -5.000037727605916 7.999790940504631 0  -3.999982637470165 7.999876891568125 0  -2.999992843906099 7.999977870602643 0  -2.000013572233314 8.000027032525514 0  -1.000015379012041 8.000032566926334 0  -3.101004313181742e-06 8.000034158994849 0  1.000006141179045 8.000039050221094 0  2.000002494070556 8.000018764296936 0  2.999978867752882 7.999984207457874 0  3.999970985383966 7.999898528320426 0  5.000024712279027 7.999801884786486 0  6.000074700769854 7.999828601305155 0  7.00007699961181 7.999876616795111 0  8.000046678794895 7.999935881373891 0  9 8 0  -9 10 0  -8.00013766523438 9.999880514510171 0  -7.000248777428038 9.999760047344362 0  -6.000301655899039 9.999637856664485 0  -5.000252204981214 9.99951376065412 0  -4.000164762094566 9.999791428346272 0  -3.000179183843314 10.0000302111423 0  -2.000143907692861 9.999988925679284 0  -1.00006723391778 9.99997568362434 0  -1.085597423837772e-05 9.999972461454757 0  1.00004498134441 9.999972730004364 0  2.000119157681503 9.999971335042391 0  3.000184599441019 10.00005633894204 0  4.000176721506814 9.999832384505289 0  5.000275091636407 9.999536982126715 0  6.000320755677587 9.999651670003329 0  7.000262317731476 9.999767963664866 0  8.000144654376312 9.999884149953894 0  9 10 0  -9 12 0  -8.000335147044137 11.99983215746195 0  -7.000652884841637 11.99965654120167 0  -6.000933519190345 11.9994638542075 0  -5.00115264831538 11.99924112629624 0  -4.001107673222687 11.99974788953797 0  -3.001148109754698 12.00024968720884 0  -2.000791533301197 12.00018864067557 0  -1.000394238299975 12.00015528314569 0  1.862154323025433e-05 12.00014821916893 0  1.000435863020193 12.00016845258538 0  2.000848122260692 12.00022200185318 0  3.001236926027151 12.00032397402261 0  4.001194775296903 11.99978695770547 0  5.00122314673122 11.99924559522064 0  6.00098294942245 11.99946841246887 0  7.000684402944766 11.99965979954849 0  8.000350511783626 11.99983380037466 0  9 12 0  -9 14 0  -8.000602016370458 13.99981494605255 0  -7.001205006818801 13.99962140580784 0  -6.001810720620636 13.99941014364009 0  -5.002422973192527 13.99917045612167 0  -4.002428874955573 13.99976363739183 0  -3.002432560491772 14.00036433767826 0  -2.001602502395809 14.00027769283919 0  -1.000783710342725 14.00022979072952 0  3.06258646256758e-05 14.00021486248474 0  1.000847030777547 14.00023100358836 0  2.001671591441054 14.00027910912594 0  3.002509120870551 14.00036181244721 0  4.002516211706664 13.99976632303934 0  5.002519924676641 13.99917457417843 0  6.001877949380269 13.9994110686449 0  7.001247521423291 13.9996212957417 0  8.000622636478566 13.99981471865762 0  9 14 0  -9 16 0  -8.000864648585004 15.99983171367014 0  -7.001745674380459 15.99965722961814 0  -6.00266086433656 15.9994702419063 0  -5.003630923034039 15.99926433581846 0  -4.003665002049041 15.99977179458526 0  -3.003632599175643 16.00027655936396 0  -2.00236928470265 16.00021204606891 0  -1.001155746224585 16.00017262165721 0  3.436490501341181e-05 16.00015742561405 0  1.001225976154853 16.00016589028781 0  2.002444036683707 16.00019801837679 0  3.00371509297785 16.00025425741001 0  4.00375182746503 15.99975116923217 0  5.003720178652576 15.99924767301271 0  6.002725762551632 15.99945892496677 0  7.001787864040048 15.99965010013582 0  8.000885407453827 15.9998282513158 0  9 16 0  -9 18 0  -8.001061408131481 17.99987328105556 0  -7.00214904453317 17.99974310351821 0  -6.003290498680628 17.99960607072984 0  -5.004516088826163 17.99945893173703 0  -4.004567861688233 17.99977383408869 0  -3.004517920017991 18.00008831580165 0  -2.002938084314249 18.00004626681838 0  -1.001434600474391 18.00001877046773 0  3.207838280621184e-05 18.00000557431191 0  1.001499593782819 18.00000634644479 0  2.003005536003921 18.00002069735103 0  3.004589272386217 18.00004810506762 0  4.004642279110914 17.99973965928718 0  5.00459210035695 17.99943211247354 0  6.003346367342533 17.99958717178774 0  7.00218572511494 17.99973105170245 0  8.001079574737599 17.99986741247224 0  9 18 0  -9 20 0  -8.001152921157823 19.999928677174 0  -7.002336484813343 19.9998564069131 0  -6.003582506324572 19.99978234362212 0  -5.00492515073232 19.99970584591602 0  -4.004984359422324 19.9997738968332 0  -3.004925926182432 19.99984151800572 0  -2.003202740605811 19.99982244170096 0  -1.001566836698092 19.9998078913618 0  2.641672577952444e-05 19.99979801878372 0  1.001620041814606 19.99979265066682 0  2.003257035681647 19.99979129989931 0  3.004981961273328 19.99979313737114 0  4.00504147846681 19.99973371743496 0  5.004982952090551 19.9996749390188 0  6.003625439474801 19.9997601593865 0  7.002364899383822 19.99984209116668 0  8.001167064356554 19.99992166101877 0  8.999999999996502 19.99999999999836 0  -9 22 0  -8.001121556373853 21.99998785650765 0  -7.002273439124356 21.99997688069769 0  -6.003486927501019 21.99996835501407 0  -5.004795203260788 21.99996379354394 0  -4.004853196126712 21.99977149832993 0  -3.004795602333012 21.99957876281411 0  -2.003119549340842 21.99958056770351 0  -1.001529076954994 21.99957836105948 0  1.926395844288882e-05 21.99957250504622 0  1.001567608826081 21.99956294032987 0  2.003158073284517 21.99954919398498 0  3.004834047998443 21.99953037160459 0  4.004891232941885 21.99973161378979 0  5.004833002426317 21.99993326679987 0  6.003515496984735 21.99994629760549 0  7.002292578872256 21.99996257191838 0  8.001131151184003 21.99998082069844 0  9 22 0  -9 24 0  -8.000968570788205 24.00004236510857 0  -7.00196330332696 24.00008755332543 0  -6.003011088815413 24.00013850655742 0  -5.004140249586504 24.00019840641925 0  -4.004190197891391 23.99976700004547 0  -3.004140750450282 23.99933522946084 0  -2.002695275605423 23.99935469036225 0  -1.001323364169269 23.9993633813384 0  1.212355946689686e-05 23.99936177851003 0  1.001347329422517 23.99934990508432 0  2.002718377421992 23.99932733321624 0  3.004162353572505 23.99929318062708 0  4.004210194532745 23.99973253493699 0  5.004159352173638 24.00017217353839 0  6.003026125028634 24.00011945511786 0  7.001973654301088 24.00007514948046 0  8.000973840479585 24.00003625229006 0  9 24 0  -9 26 0  -8.000710580315188 26.00008558751537 0  -7.001440250609144 26.00017517211826 0  -6.002208605235727 26.00027287054845 0  -5.003036191313934 26.00038304371036 0  -4.003072922620706 25.99976085617896 0  -3.003037154945051 25.99913840627862 0  -2.001977944462621 25.99917178163893 0  -1.000972497424004 25.99918946450868 0  6.161170899044996e-06 25.99919202031645 0  1.000984328242076 25.99917954614096 0  2.001988282533147 25.99915167218328 0  3.003044944626454 25.99910755891862 0  4.00307824662688 25.99973566917288 0  5.003040148168346 26.00036395011036 0  6.00221265148174 26.00025896276242 0  7.001443449895477 26.0001660966948 0  8.000712326530925 26.00008110867055 0  9 26 0  -9 28 0  -8.00037581527496 28.00011282882372 0  -7.000761703456806 28.0002303396131 0  -6.001168011381254 28.00035733517191 0  -5.001605556017778 28.00049886232855 0  -4.00162558064017 27.99975368212066 0  -3.001607182672068 27.99900838012571 0  -2.001046727330667 27.99905152479187 0  -1.000515005323222 27.99907593601707 0  2.217174224697834e-06 27.99908225868485 0  1.000518816343694 27.99907066151536 0  2.001048648711544 27.99904083728511 0  3.001605889006406 27.99899200194201 0  4.001621305022342 27.99974035550966 0  5.001599635654999 28.00048880524567 0  6.001164885638558 28.000349994988 0  7.00076023386147 28.00022554248535 0  8.000375261417854 28.
[...]
<PointData  Scalars="f_44-1"> 
<DataArray  type="Float64"  Name="f_44-1"  format="ascii">1.0415467723953169e-03  9.4491846302130453e-05  6.1659421399990342e-05  1.4490150636196003e-04  -1.2670116056006427e-03  0.0000000000000000e+00  0.0000000000000000e+00  0.0000000000000000e+00  0.0000000000000000e+00  0.0000000000000000e+00  0.0000000000000000e+00  0.0000000000000000e+00  0.0000000000000000e+00  0.0000000000000000e+00  1.0593757948087355e-03  9.4445752926546070e-05  6.2289755777219263e-05  1.4421642999253324e-04  -1.2951553518027164e-03  5.0113327286021421e-02  5.0164875606699563e-02  5.0140653956395408e-02  5.0008468004817543e-02  4.9939188287827604e-02  0.0000000000000000e+00  0.0000000000000000e+00  0.0000000000000000e+00  0.0000000000000000e+00  0.0000000000000000e+00  0.0000000000000000e+00  0.0000000000000000e+00  0.0000000000000000e+00  0.0000000000000000e+00  5.0282330505903701e-02  5.0333639987995442e-02  5.0307953242890717e-02  5.0173519274726811e-02  5.0104619995614469e-02  1.0028054710466740e-01  1.0027653985410677e-01  1.0024742956456492e-01  1.0023605108530156e-01  1.0025180176563940e-01  0.0000000000000000e+00  0.0000000000000000e+00  0.0000000000000000e+00  0.0000000000000000e+00  0.0000000000000000e+00  0.0000000000000000e+00  0.0000000000000000e+00  0.0000000000000000e+00  0.0000000000000000e+00  1.0060976797187113e-01  1.0060537179338151e-01  1.0057656888646765e-01  1.0056762746456131e-01  1.0059053029191843e-01  1.5041848744948710e-01  1.5041363752745143e-01  1.5040841939174976e-01  1.5040121797804459e-01  1.5038066922704274e-01  0.0000000000000000e+00  0.0000000000000000e+00  0.0000000000000000e+00  0.0000000000000000e+00  0.0000000000000000e+00  0.0000000000000000e+00  0.0000000000000000e+00  0.0000000000000000e+00  0.0000000000000000e+00  1.5092276837045232e-01  1.5089919302875540e-01  1.5088727826503576e-01  1.5088238818832631e-01  1.5087793389959850e-01  2.0058486888274532e-01  2.0057956973262270e-01  2.0057370369332311e-01  2.0055091992558691e-01  2.0052908015281720e-01  0.0000000000000000e+00  0.0000000000000000e+00  0.0000000000000000e+00  0.0000000000000000e+00  0.0000000000000000e+00  0.0000000000000000e+00  0.0000000000000000e+00  0.0000000000000000e+00  0.0000000000000000e+00  2.0119967126976449e-01  2.0118495284026763e-01  2.0116769547066948e-01  2.0116040973665586e-01  2.0115991914989328e-01  2.5075175629226737e-01  2.5074518649042782e-01  2.5075026882691220e-01  2.5078042613013407e-01  2.5087599548955386e-01  0.0000000000000000e+00  7.6594852194883734e-01  7.6588709643553188e-01  7.6605976073471171e-01  7.6610291496330640e-01  7.6607237388206284e-01  7.6589394890583651e-01  7.6523679308963077e-01  0.0000000000000000e+00  2.5145329273292694e-01  2.5142340623575521e-01  2.5140668125828614e-01  2.5140796243907232e-01  2.5141259117711218e-01  3.0089642347194812e-01  3.0088143693759883e-01  3.0086571862875322e-01  3.0085115329734813e-01  3.0079979020515751e-01  0.0000000000000000e+00  7.6614077198341746e-01  7.6622552667350452e-01  7.6626631410897550e-01  7.6625547890975843e-01  7.6623560319314621e-01  7.6619968001627770e-01  7.6627852687280196e-01  0.0000000000000000e+00  3.0153097778733884e-01  3.0155563590132622e-01  3.0160694644562924e-01  3.0163965595030351e-01  3.0165512988733700e-01  3.5106102194243222e-01  3.5103459640751661e-01  3.5098655046932226e-01  3.5091468532565279e-01  3.5080990407509632e-01  0.0000000000000000e+00  7.6675363667399699e-01  7.6662726478133159e-01  7.6653588358527713e-01  7.6649846695217549e-01  7.6649664552381291e-01  7.6652593931498392e-01  7.6659110726578528e-01  0.0000000000000000e+00  3.5160858845670157e-01  3.5175084359950454e-01  3.5185931860013048e-01  3.5192516195977436e-01  3.5195267660565122e-01  4.0132055933304561e-01  4.0128386534273242e-01  4.0120568151266872e-01  4.0108271181029703e-01  4.0090062354810507e-01  0.0000000000000000e+00  7.6694312813851018e-01  7.6677813512705961e-01  7.6667091986587055e-01  7.6662309044035526e-01  7.6663209409321964e-01  7.6669765144396695e-01  7.6683099672290445e-01  0.0000000000000000e+00  4.0190426348789643e-01  4.0210697745439988e-01  4.0225830139357771e-01  4.0235115325381526e-01  4.0238836037334130e-01  4.5174751100653693e-01  4.5170421435751207e-01  4.5160561843557490e-01  4.5144830347597004e-01  4.5122075239066645e-01  0.0000000000000000e+00  7.6690948120245406e-01  7.6669826732253021e-01  7.6656611608275360e-01  7.6651195508374559e-01  7.6653446187438479e-01  7.6663362591289819e-01  7.6681957303537518e-01  0.0000000000000000e+00  4.5248162353146465e-01  4.5271169511875897e-01  4.5287929899059048e-01  4.5298365496316728e-01  4.5302566652207071e-01  5.0239208701867488e-01  5.0234694432904703e-01  5.0224050371665574e-01  5.0206987293239180e-01  5.0182605150361448e-01  0.0000000000000000e+00  7.6652266965180771e-01  7.6629177736181098e-01  7.6615187096454718e-01  7.6609785632524730e-01  7.6612934408792599e-01  7.6624689905079946e-01  7.6645708582047967e-01  0.0000000000000000e+00  5.0334796460348630e-01  5.0358066147603509e-01  5.0374735193129305e-01  5.0385158954279485e-01  5.0389391936870009e-01  5.5327511611866431e-01  5.5323304378572125e-01  5.5313152262413789e-01  5.5296826399869425e-01  5.5273681548750442e-01  0.0000000000000000e+00  7.6575139557044392e-01  7.6552659347636398e-01  7.6539369747012909e-01  7.6534453756064313e-01  7.6537938706344288e-01  7.6549912587460245e-01  7.6570722702629623e-01  0.0000000000000000e+00  5.5450756140428148e-01  5.5471534982407900e-01  5.5486181265583601e-01  5.5495401710967274e-01  5.5499188730405924e-01  6.0438765502893410e-01  6.0435312215263937e-01  6.0426813010518754e-01  6.0413102343546810e-01  6.0393804576481758e-01  0.0000000000000000e+00  7.6460457164241780e-01  7.6441040317561293e-01  7.6429824296846305e-01  7.6425803396781089e-01  7.6429050210671268e-01  7.6439670228977186e-01  7.6457693637409241e-01  0.0000000000000000e+00  6.0592444935656764e-01  6.0608346918028821e-01  6.0619317421205321e-01  6.0626298660961297e-01  6.0629215722040386e-01  6.5569386459912005e-01  6.5567042348621463e-01  6.5561134900662688e-01  6.5551558469947635e-01  6.5538211807613878e-01  0.0000000000000000e+00  7.6313396604617156e-01  7.6299137088371050e-01  7.6291149438316386e-01  7.6288351780997810e-01  7.6290851702793749e-01  7.6298762838744216e-01  7.6311813601675427e-01  0.0000000000000000e+00  6.5753455651504078e-01  6.5762645323277757e-01  6.5768695434173252e-01  6.5772652726096570e-01  6.5774372368973899e-01  7.0713612213260912e-01  7.0712605200915846e-01  7.0709920133848747e-01  7.0705501186788700e-01  7.0699509713986575e-01  0.0000000000000000e+00  7.6142874806913396e-01  7.6135265040669986e-01  7.6131298073992959e-01  7.6129928218112752e-01  7.6131288708264411e-01  7.6135493474331761e-01  7.6142001373851109e-01  0.0000000000000000e+00  7.0925208142624363e-01  7.0926575795670943e-01  7.0926985168628987e-01  7.0927460872030124e-01  7.0927786811813198e-01  7.5864200290180794e-01  7.5864608507382558e-01  7.5865410152243140e-01  7.5866583793330378e-01  7.5868523397480803e-01  0.0000000000000000e+00  7.5960424592007014e-01  7.5960202865146298e-01  7.5960601898729474e-01  7.5960715264461309e-01  7.5960691715168660e-01  7.5960639709642963e-01  7.5959798214940466e-01  0.0000000000000000e+00  7.6097806517119548e-01  7.6091088301418730e-01  7.6085743871679290e-01  7.6082658156483451e-01  7.6081546413079393e-01  8.1013255396293948e-01  8.1014999636345075e-01  8.1019161850160493e-01  8.1025736130262027e-01  8.1035299149005158e-01  0.0000000000000000e+00  7.5778862801028690e-01  7.5785941575229221e-01  7.5790565520367092e-01  7.5792055581454754e-01  7.5790565501372453e-01  7.5786192881041470e-01  7.5778025156268380e-01  0.0000000000000000e+00  8.1261071956623931e-01  8.1246891581547942e-01  8.1236312146644774e-01  8.1229977729470715e-01  8.1227542560831023e-01  8.6153117931577339e-01  8.6155970248843838e-01  8.6162990202169043e-01  8.6174167798977674e-01  8.6190192969511004e-01  0.0000000000000000e+00  7.5610851376429955e-01  7.5624330489689895e-01  7.5632563561259336e-01  7.5635166297394985e-01  7.5632285945084243e-01  7.5624003952492003e-01  7.5609343199342005e-01  0.0000000000000000e+00  8.6405631227195356e-01  8.6385456977468411e-01  8.6370757558442945e-01  8.6361856451173535e-01  8.6358360474641183e-01  9.1277231297753736e-01  9.1280838612671145e-01  9.1289889083110165e-01  9.1304352394586075e-01  9.1324943744811660e-01  0.0000000000000000e+00  7.5467512560100025e-01  7.5485770891239334e-01  7.5496580051631523e-01  7.5499892933249568e-01  7.5495839054850522e-01  7.5484475366622172e-01  7.5464864840065682e-01  0.0000000000000000e+00  9.1523975322454520e-01  9.1499987907308800e-01  9.1482780735093683e-01  9.1472301309365622e-01  9.1468129460437386e-01  9.6380886316925130e-01  9.6384811552926086e-01  9.6394837205959172e-01  9.6410900322993132e-01  9.6433633920551520e-01  0.0000000000000000e+00  7.5357219856627133e-01  7.5378076578068465e-01  7.5390109349433754e-01  7.5393624935426551e-01  7.5388725192158523e-01  7.5375431560019412e-01  7.5352960585935758e-01  0.0000000000000000e+00  9.6611375504936481e-01  9.6586253877439399e-01  9.6568488723739376e-01  9.6557625014200388e-01  9.6553243079017848e-01  1.0146176280836849e+00  1.0146554185937326e+00  1.0147538266118477e+00  1.0149118969177462e+00  1.0151338826258267e+00  0.0000000000000000e+00  7.5284668336731486e-01  7.5305597218847986e-01  7.5317316510750931e-01  7.5320470818812535e-01  7.5315122589534111e-01  7.5301233757366648e-01  7.5278302486175186e-01  0.0000000000000000e+00  1.0166655935265625e+00  1.0164319179773968e+00  1.0162694183552206e+00  1.0161695893029565e+00  1.0161285826782327e+00  1.0652021139116237e+00  1.0652340268183607e+00  1.0653192019604485e+00  1.0654563545404381e+00  1.0656465515372908e+00  0.0000000000000000e+00  7.5250240014904579e-01  7.5268686168188070e-01  7.5278522397559244e-01  7.5280766756633266e-01  7.5275419657970011e-01  7.5262354044070556e-01  7.5241456966658560e-01  0.0000000000000000e+00  1.0669205691222583e+00  1.0667317868080446e+00  1.0666038374066729e+00  1.0665246147497325e+00  1.0664909297392173e+00  1.1155906195636365e+00  1.1156138103913962e+00  1.1156775802904138e+00  1.1157819653534449e+00  1.1159216115773813e+00  0.0000000000000000e+00  7.5250242478927998e-01  7.5263436052523525e-01  7.5269911386002297e-01  7.5270804864732910e-01  7.5266091794837087e-01  7.5255519375588042e-01  7.5239233737630773e-01  0.0000000000000000e+00  1.1169404673861154e+00  1.1168186601622212e+00  1.1167411407485577e+00  1.1166917167823822e+00  1.1166686918896387e+00  1.1658335703290021e+00  1.1658456096049674e+00  1.1658787167744673e+00  1.1659358710600332e+00  1.1660083462974438e+00  0.0000000000000000e+00  7.5274840279160360e-01  7.5281250953604317e-01  7.5284130602078791e-01  7.5283942697520778e-01  7.5280231803531328e-01  7.5271178266722238e-01  7.5258707613945786e-01  0.0000000000000000e+00  1.1668126535611520e+00  1.1667801709001953e+00  1.1667601343798406e+00  1.1667444000742000e+00  1.1667332516734432e+00  1.2160023047513164e+00  1.2160041659211973e+00  1.2160080756735854e+00  1.2160119825640010e+00  1.2159717202566871e+00  0.0000000000000000e+00  7.5306364338979737e-01  7.5314196084004570e-01  7.5310609849132570e-01  7.5308633459738838e-01  7.5307562903109337e-01  7.5311640701784321e-01  7.5320067843404326e-01  0.0000000000000000e+00  1.2167138706513401e+00  1.2167223148462838e+00  1.2167539542445516e+00  1.2167669839768493e+00  1.2167658006328004e+00  1.2661725476156795e+00  1.2661677514600280e+00  1.2661491545909880e+00  1.2661023158723410e+00  1.2660361493487475e+00  0.0000000000000000e+00  7.5410396643211786e-01  7.5344908055791493e-01  7.5327239075528696e-01  7.5324203273190071e-01  7.5328468584413133e-01  7.5345527860688188e-01  7.5339499609395100e-01  0.0000000000000000e+00  1.2666125463100169e+00  1.2667483560144543e+00  1.2668077103459188e+00  1.2668323180821370e+00  1.2668354706958744e+00  1.3163923803221718e+00  1.3163872990081433e+00  1.3163698891604334e+00  1.3163396575511677e+00  1.3163124244205364e+00  0.0000000000000000e+00  0.0000000000000000e+00  0.0000000000000000e+00  0.0000000000000000e+00  0.0000000000000000e+00  0.0000000000000000e+00  0.0000000000000000e+00  0.0000000000000000e+00  0.0000000000000000e+00  1.3169689541940985e+00  1.3169645547312545e+00  1.3169610194351662e+00  1.3169673400415067e+00  1.3169681010862724e+00  1.3666649567054736e+00  1.3666544480146652e+00  1.3666461014799343e+00  1.3666307439383716e+00  1.3666028056814239e+00  0.0000000000000000e+00  0.0000000000000000e+00  0.0000000000000000e+00  0.0000000000000000e+00  0.0000000000000000e+00  0.0000000000000000e+00  0.0000000000000000e+00  0.0000000000000000e+00  0.0000000000000000e+00  1.3671558127674663e+00  1.3671334256369134e+00  1.3671300050590416e+00  1.3671290961140681e+00  1.3671257012959479e+00  1.4169354712310456e+00  1.4169621998332063e+00  1.4169588683160363e+00  1.4169254073300195e+00  1.4169183039374074e+00  0.0000000000000000e+00  0.0000000000000000e+00  0.0000000000000000e+00  0.0000000000000000e+00  0.0000000000000000e+00  0.0000000000000000e+00  0.0000000000000000e+00  0.0000000000000000e+00  0.0000000000000000e+00  1.4172783291800526e+00  1.4172977639420463e+00  1.4172931265334205e+00  1.4172614581377034e+00  1.4172572545293225e+00  1.4673998611220964e+00  1.4673700021697471e+00  1.4672486916297043e+00  1.4672436240261215e+00  1.4673222065442320e+00  0.0000000000000000e+00  0.0000000000000000e+00  0.0000000000000000e+00  0.0000000000000000e+00  0.0000000000000000e+00  0.0000000000000000e+00  0.0000000000000000e+00  0.0000000000000000e+00  0.0000000000000000e+00  1.4675726880496982e+00  1.4675390205103216e+00  1.4674197429137248e+00  1.4674152947382022e+00  1.4674924578266855e+00  1.5190100392860955e+00  1.5173862461596308e+00  1.5174438412447198e+00  1.5174332633252527e+00  1.5164097531072551e+00  0.0000000000000000e+00  0.0000000000000000e+00  0.0000000000000000e+00  0.0000000000000000e+00  0.0000000000000000e+00  0.0000000000000000e+00  0.0000000000000000e+00  0.0000000000000000e+00  0.0000000000000000e+00  1.5189702095242112e+00  1.5173873487411924e+00  1.5174449466208064e+00  1.5174330229163446e+00  1.5164333085038035e+00  </DataArray> 
</PointData> 
</Piece>
</UnstructuredGrid>
</VTKFile>