<?xml version="1.0"?>
<VTKFile type="UnstructuredGrid"  version="0.1"  >
<UnstructuredGrid>
<Piece  NumberOfPoints="589" NumberOfCells="1080">
<Points>
<DataArray  type="Float64"  NumberOfComponents="3"  format="ascii">-9 0 0  -8 0 0  -7 0 0  -6 0 0  -5 0 0  -4 0 0  -3 0 0  -2 0 0  -1 0 0  0 0 0  1 0 0  2 0 0  3 0 0  4 0 0  5 0 0  6 0 0  7 0 0  8 0 0  9 0 0  -9 2 0  -7.99999872953794 2.000001419535761 0  -6.999997409874398 2.000002672288822 0  -5.999995877698929 2.000003623610242 0  -4.999993718053263 2.000004214736145 0  -3.999995994052881 2.000003082493329 0  -2.999998261692056 2.000002060341457 0  -1.999999368663343 2.000001116860251 0  -0.9999995611504118 2.000000347169296 0  8.513421471476697e-07 1.999999930402541 0  1.000001413462455 1.999999952965602 0  2.000001722493697 2.000000321367841 0  3.000001563510585 2.000000693390955 0  4.000001006759363 2.000000807147594 0  5.000000386282744 1.999999948943706 0  6.000000633963191 2.000000480257746 0  7.00000050584597 2.000000579480837 0  8.000000262299508 2.000000370010648 0  9 2 0  -9.000000000004983 4 0  -7.999997655876442 4.000003506212677 0  -6.999995669793685 4.000006550312676 0  -5.999994265277396 4.000008688007232 0  -4.999993439473974 4.000009513165385 0  -3.999996532164841 4.000008721175298 0  -2.99999853893895 4.000005868254233 0  -1.999998994666377 4.000002266445255 0  -0.9999981119224548 3.99999932091167 0  3.503655887233157e-06 3.999997926515712 0  1.00000522380621 3.999998242309116 0  2.000006499236361 3.999999686043218 0  3.000006808672914 4.00000156235923 0  4.000006012578181 4.000003009854235 0  5.000004409692427 4.000001994078513 0  6.00000277111676 4.000002688881284 0  7.000001473409179 4.000002393736344 0  8.000000599611251 4.000001382184413 0  9 4 0  -9 6 0  -7.999995150012383 6.000007441384847 0  -6.999991603441575 6.000014053998399 0  -5.999990338006742 6.000019002585726 0  -4.999991594255563 6.000021533699197 0  -3.999997426618893 6.000017047470886 0  -2.999999880594365 6.000008394941403 0  -1.999998338439373 5.999999494990905 0  -0.999995312376817 5.999994725243277 0  7.502753416512739e-06 5.999993609614809 0  1.000009868854703 5.999994526931576 0  2.000011691317003 5.999997413729874 0  3.000012681894378 6.000002357148102 0  4.000012097496289 6.00000710600996 0  5.000008501731514 6.000008426724079 0  6.000003544782283 6.000008857320047 0  7.00000074532363 6.000007073638379 0  7.999999840170138 6.000003876901019 0  9 6 0  -9 8 0  -7.999987429823207 8.000014691843257 0  -6.99997841246998 8.000028213994694 0  -5.99997632398467 8.000038987243084 0  -4.999983876317719 8.000044430033178 0  -3.999995613282004 8.000024838758456 0  -2.999991923540261 8.000002232587633 0  -1.999986229595195 7.999992065950187 0  -0.9999852704652966 7.999991991856525 0  1.220152066542232e-05 7.999992131334464 0  1.000010030812351 7.99999105999946 0  2.000010360281884 7.99999369535376 0  3.000014602503686 7.99999823470193 0  4.000016258844608 8.000011520020898 0  5.000007292810583 8.000026801566689 0  5.999995688349557 8.00002388305052 0  6.999992439905532 8.000017405880902 0  7.999994820723106 8.000009092345936 0  9 8 0  -9 10 0  -7.99996549722173 10.00002662194265 0  -6.999937505425257 10.00005337095112 0  -5.999923745812582 10.00008029593009 0  -4.999934863410089 10.00010726508315 0  -3.999954336098376 10.00004180346766 0  -2.999948439334798 9.999986279057751 0  -1.99995487455644 9.999999337450653 0  -0.9999717156553102 10.00000358700632 0  1.686277791726335e-05 10.00000462275219 0  1.000006105982783 10.00000420750893 0  1.999992395425361 10.00000322593896 0  2.999979541914342 9.999985797937832 0  3.999980759899933 10.00002240540292 0  4.999964700554163 10.00007156189473 0  5.999954406442315 10.00005314433291 0  6.999961616643131 10.0000350840624 0  7.999978606987997 10.00001742330723 0  9 10 0  -9 12 0  -7.99991751518318 12.00003804579127 0  -6.999839660683119 12.00007782747553 0  -5.999771641038191 12.00012143404753 0  -4.999719828588018 12.0001718130405 0  -3.999730060702316 12.00004881975827 0  -2.99971806473482 11.9999267135711 0  -1.999783454144371 11.99994553010887 0  -0.9998606102937276 11.99995780058699 0  5.674237889569102e-05 11.99996399738984 0  0.9999710987438292 11.99996419027631 0  1.999883973472005 11.99995745956356 0  2.999797974071718 11.99994117777086 0  3.999804722788852 12.00002883852688 0  4.999802141372084 12.00011699468663 0  5.999843101292067 12.00008097833323 0  6.999891669987256 12.00005116530967 0  7.999944780995203 12.00002480514605 0  9 12 0  -9 14 0  -7.999850999933432 14.00004252848293 0  -6.999702457348044 14.0000869886482 0  -5.999554674651432 14.00013548860656 0  -4.999407495364382 14.00019048309497 0  -3.999406076391471 14.00004160015107 0  -2.999402406851755 13.99989063241365 0  -1.999564989836605 13.99991791119315 0  -0.9997275544578841 13.99993631282613 0  0.0001086009081067775 13.99994739044441 0  0.9999420218987003 13.99995187077608 0  1.999771063259814 13.99994990135374 0  2.999594028108056 13.99994127958067 0  3.999591420408655 14.00003083416133 0  4.999593563579011 14.00011940083076 0  5.999701348660701 14.00008400300245 0  6.999803547196781 14.00005343735472 0  7.999902518979414 14.00002596805528 0  9 14 0  -9 16 0  -7.999782637738476 16.00003928617232 0  -6.999562186533548 16.00007999419218 0  -5.999335249997779 16.00012357025023 0  -4.999097772908313 16.00017148070553 0  -3.999089972085623 16.00003644550899 0  -2.999094842061816 15.99990179846105 0  -1.999346639553486 15.99992581177918 0  -0.9995894012063603 15.99994412977051 0  0.00017138798472074 15.99995718011233 0  0.9999304675463331 15.9999653572029 0  1.999682477697829 15.99996895910779 0  2.999421631053407 15.99996821329757 0  3.999413706634401 16.0000319157134 0  4.999422028276081 16.00009541984643 0  5.999581921928229 16.00006770131979 0  6.999728319861317 16.00004332559561 0  7.999866213628533 16.00002112673773 0  9 16 0  -9 18 0  -7.999726612196436 18.00003035700317 0  -6.999447823569448 18.00006152935278 0  -5.999157935482981 18.00009431697269 0  -4.998850643142775 18.00012948103983 0  -3.998838777010445 18.00003312661396 0  -2.9988478385846 17.99993661893417 0  -1.999164482465615 17.99995650189043 0  -0.9994654782811455 17.99997302562954 0  0.0002410039028910896 17.99998647085825 0  0.9999471975185658 17.99999715204447 0  1.999645344355042 18.0000054148228 0  2.999327317013981 18.00001165208141 0  3.999316904791624 18.00003255542525 0  4.999328018232994 18.00005303075584 0  5.999516456102905 18.000038029957 0  6.999687096316555 18.00002450723482 0  7.999846331241689 18.00001199718458 0  9 18 0  -9 20 0  -7.99969217216034 20.0000181661426 0  -6.999377824357484 20.00003660367008 0  -5.999050182309115 20.00005556008119 0  -4.998701960668897 20.00007523315685 0  -3.998688293830105 20.0000306185171 0  -2.998699603607216 19.99998583675522 0  -1.999044967445465 20.00000063450098 0  -0.9993714940347921 20.00001424190313 0  0.0003117664745429545 20.00002682332624 0  0.9999961249355649 20.00003862570928 0  1.999672932459799 20.0000499771845 0  2.999333263746088 20.00006129398254 0  3.999322337020364 20.00003242344847 0  4.999334125645349 20.00000316790169 0  5.999522158694631 20.00000244713757 0  6.99969148114595 20.00000163866059 0  7.999848707976636 20.00000081636387 0  8.999999999969331 19.99999999998973 0  -9 22 0  -7.999683795863491 22.00000488917344 0  -6.999360968854649 22.00000960184891 0  -5.999024693156821 22.00001393568529 0  -4.998667737942028 22.00001763598169 0  -3.998654162216125 22.00002896154891 0  -2.998665731737435 22.00004010671589 0  -1.999000847600702 22.00004953013464 0  -0.9993166816693926 22.00005956378365 0  0.0003781336866234627 22.00007029349536 0  1.000075271916305 22.00008190421642 0  1.999766463540553 22.00009467890414 0  2.999443249391877 22.00010900099806 0  3.999433471971273 22.0000318260272 0  4.999444242410319 21.99995430312374 0  5.999602681075063 21.99996721625844 0  6.999744235645949 21.99997882608282 0  7.999874818230603 21.99998961221189 0  9 22 0  -9 24 0  -7.999701895823149 23.99999231773344 0  -6.999397875921518 23.99998411448398 0  -5.999081869355119 23.99997484394374 0  -4.99874751315953 23.99996390897599 0  -3.998735489840088 24.00002798921376 0  -2.998745810169348 24.00009186144734 0  -1.999033895746924 24.00009598306472 0  -0.9993044858225015 24.00010209954069 0  0.000435210080361613 24.00011023755068 0  1.000178225271426 24.00012052445108 0  1.999917658926279 24.00013318809355 0  2.999646500132678 24.00014855799381 0  3.999639094248374 24.00003089238604 0  4.999647547407589 23.9999128999319 0  5.999750715331482 23.99993720039736 0  6.999840863233273 23.99995930956402 0  7.999922524408015 23.99998000224272 0  9 24 0  -9 26 0  -7.99974364579873 25.99998182993658 0  -6.999482682755645 25.99996289553458 0  -5.999212401808268 25.99994240813613 0  -4.998927893665827 25.99991953076754 0  -3.998918502425335 26.0000275480649 0  -2.998926445762434 26.00013533519626 0  -1.999136960989365 26.00013445390106 0  -0.9993334492806112 26.00013654539042 0  0.0004790128245406553 26.0001415819867 0  1.000295527097503 26.00014963329983 0  2.00011126725341 26.00016086735905 0  2.999921368136035 26.00017554981288 0  3.999917151930567 26.00002976884932 0  4.999922408845544 25.99988368620884 0  5.999950800506762 25.9999159521775 0  6.999971419195483 25.99994546077436 0  7.99998696261204 25.99997317312567 0  9 26 0  -9 28 0  -7.999803814518091 27.99997439925333 0  -6.99960472997648 27.99994788753422 0  -5.999399795410695 27.9999195306665 0  -4.99918595372334 27.99988834829886 0  -3.99917990448385 28.00002750453168 0  -2.999184711067146 28.00016641088453 0  -1.999296168776522 28.00016102932757 0  -0.9993982276799959 28.00015920747392 0  0.000506609900609401 28.00016086311209 0  1.000415949703279 28.00016600796845 0  2.000327472204378 28.00017474740111 0  3.000238887916528 28.00018728043177 0  4.000238300501077 28.00002860526995 0  5.000239865408805 27.99986965247237 0  6.000181942761856 27.99990573625178 0  7.000122253189057 27.99993879895
[...]
<PointData  Scalars="f_44-1"> 
<DataArray  type="Float64"  Name="f_44-1"  format="ascii">-6.0959485405717283e-04  -7.8024099925376117e-05  -2.3721499158903175e-05  -1.2807449870366150e-04  1.1281833221771119e-03  0.0000000000000000e+00  0.0000000000000000e+00  0.0000000000000000e+00  0.0000000000000000e+00  0.0000000000000000e+00  0.0000000000000000e+00  0.0000000000000000e+00  0.0000000000000000e+00  0.0000000000000000e+00  -6.3424772751070489e-04  -5.0660210461166045e-05  1.6429789744552370e-06  -1.2126605633420061e-04  1.1606046386401314e-03  -1.5381529964588159e-02  -1.5394954069952164e-02  -1.5393533671021711e-02  -1.5352441614184628e-02  -1.5265552340549974e-02  0.0000000000000000e+00  0.0000000000000000e+00  0.0000000000000000e+00  0.0000000000000000e+00  0.0000000000000000e+00  0.0000000000000000e+00  0.0000000000000000e+00  0.0000000000000000e+00  0.0000000000000000e+00  -1.6004690178024059e-02  -1.6041635743407133e-02  -1.6052970186544196e-02  -1.5991575098842994e-02  -1.5886348859857281e-02  -3.0838405570112873e-02  -3.0855702599127361e-02  -3.0871777637921753e-02  -3.0868845465647787e-02  -3.0849541541450975e-02  0.0000000000000000e+00  0.0000000000000000e+00  0.0000000000000000e+00  0.0000000000000000e+00  0.0000000000000000e+00  0.0000000000000000e+00  0.0000000000000000e+00  0.0000000000000000e+00  0.0000000000000000e+00  -3.2084574984262308e-02  -3.2060353194730898e-02  -3.2041985328777937e-02  -3.2046374544286070e-02  -3.2052768204803926e-02  -4.6252324355741635e-02  -4.6233797151192919e-02  -4.6190906956271385e-02  -4.6141486016355440e-02  -4.6103554163107574e-02  0.0000000000000000e+00  0.0000000000000000e+00  0.0000000000000000e+00  0.0000000000000000e+00  0.0000000000000000e+00  0.0000000000000000e+00  0.0000000000000000e+00  0.0000000000000000e+00  0.0000000000000000e+00  -4.8071803589600788e-02  -4.8058795488315570e-02  -4.8056735785369495e-02  -4.8054437217871969e-02  -4.8055984913323212e-02  -6.1731852809405539e-02  -6.1729025497113579e-02  -6.1738388797942058e-02  -6.1750959332813798e-02  -6.1755029421898082e-02  0.0000000000000000e+00  0.0000000000000000e+00  0.0000000000000000e+00  0.0000000000000000e+00  0.0000000000000000e+00  0.0000000000000000e+00  0.0000000000000000e+00  0.0000000000000000e+00  0.0000000000000000e+00  -6.4131175249329125e-02  -6.4083046804650629e-02  -6.4053237180345030e-02  -6.4044172934963464e-02  -6.4036867310290277e-02  -7.7218980348545685e-02  -7.7212640299534438e-02  -7.7209822326340619e-02  -7.7201247296189546e-02  -7.7277913382821237e-02  0.0000000000000000e+00  -2.1787830079020928e-01  -2.1788015056326890e-01  -2.1815009418746292e-01  -2.1825393357084430e-01  -2.1815025144520356e-01  -2.1781390300839096e-01  -2.1718500418029218e-01  0.0000000000000000e+00  -7.9991665444346854e-02  -7.9961205277234285e-02  -7.9983923548754193e-02  -8.0005899880318393e-02  -8.0005679988685421e-02  -9.2717762122645042e-02  -9.2698855358557194e-02  -9.2658009196446608e-02  -9.2583235774990558e-02  -9.2539019471194445e-02  0.0000000000000000e+00  -2.1823707789798497e-01  -2.1848379222170453e-01  -2.1861364410557746e-01  -2.1862127184737518e-01  -2.1854860385305097e-01  -2.1842317915745768e-01  -2.1831216643652757e-01  0.0000000000000000e+00  -9.5757970276174526e-02  -9.5806427185315943e-02  -9.5927931035818259e-02  -9.6003773021517233e-02  -9.6022223146993865e-02  -1.0828251459244539e-01  -1.0825085741823802e-01  -1.0818242697957596e-01  -1.0807193161012989e-01  -1.0800798300132895e-01  0.0000000000000000e+00  -2.1935917146375714e-01  -2.1938664818085613e-01  -2.1938997769667534e-01  -2.1937106406871823e-01  -2.1931322388833160e-01  -2.1920747227532669e-01  -2.1907708331675255e-01  0.0000000000000000e+00  -1.1176477502411379e-01  -1.1188063013510822e-01  -1.1203825508588568e-01  -1.1212994213176122e-01  -1.1216478520558405e-01  -1.2394159891010530e-01  -1.2390331070295617e-01  -1.2383432447399915e-01  -1.2373752606846929e-01  -1.2368569167766640e-01  0.0000000000000000e+00  -2.2024210168620512e-01  -2.2031634703277680e-01  -2.2034214707658312e-01  -2.2032276788148256e-01  -2.2025847664798756e-01  -2.2014712907216605e-01  -2.1998852502672511e-01  0.0000000000000000e+00  -1.2814884061745632e-01  -1.2821849630766849e-01  -1.2833824745558958e-01  -1.2841513222592835e-01  -1.2845167894526682e-01  -1.3966370023518215e-01  -1.3962629638108637e-01  -1.3958176511730172e-01  -1.3953959495907417e-01  -1.3954217344454733e-01  0.0000000000000000e+00  -2.2134687598637987e-01  -2.2143195459263032e-01  -2.2146764049747747e-01  -2.2145405219312037e-01  -2.2139186452501977e-01  -2.2127893285801081e-01  -2.2112092028731029e-01  0.0000000000000000e+00  -1.4474764281073071e-01  -1.4472510817986467e-01  -1.4476170282089232e-01  -1.4479436814030572e-01  -1.4482712666157957e-01  -1.5536650930352949e-01  -1.5533625388563455e-01  -1.5533133461087081e-01  -1.5536470680368714e-01  -1.5543829694464345e-01  0.0000000000000000e+00  -2.2266289628073777e-01  -2.2275604606902349e-01  -2.2279773466217656e-01  -2.2278738668745923e-01  -2.2272807390104571e-01  -2.2261781037544340e-01  -2.2245705682262901e-01  0.0000000000000000e+00  -1.6135281676718027e-01  -1.6122958740774213e-01  -1.6116686531174354e-01  -1.6114423001753639e-01  -1.6116850973786404e-01  -1.7094273218997039e-01  -1.7092395857072276e-01  -1.7096380489984730e-01  -1.7107574122391145e-01  -1.7121816333311915e-01  0.0000000000000000e+00  -2.2420632424398110e-01  -2.2429448807930782e-01  -2.2433492420358164e-01  -2.2432645492364217e-01  -2.2427187272160964e-01  -2.2416932482455024e-01  -2.2401689724484886e-01  0.0000000000000000e+00  -1.7777306444463306e-01  -1.7755525426604471e-01  -1.7739383689931520e-01  -1.7731518259573065e-01  -1.7732668357320533e-01  -1.8628611581321464e-01  -1.8628115905369635e-01  -1.8636275097726315e-01  -1.8654263485618378e-01  -1.8673907619798669e-01  0.0000000000000000e+00  -2.2596907512145170e-01  -2.2603860879343288e-01  -2.2606896146307975e-01  -2.2605866206599226e-01  -2.2600997590144589e-01  -2.2592179742815577e-01  -2.2579006295837109e-01  0.0000000000000000e+00  -1.9383013645423774e-01  -1.9353768703679081e-01  -1.9329212883446856e-01  -1.9316429246826750e-01  -1.9316045372476856e-01  -2.0131176850341082e-01  -2.0132100816024112e-01  -2.0143515876420712e-01  -2.0166262561694689e-01  -2.0188993624732254e-01  0.0000000000000000e+00  -2.2791326662543082e-01  -2.2795242296315629e-01  -2.2796519560239126e-01  -2.2795018901674649e-01  -2.2790877000967971e-01  -2.2784069431229492e-01  -2.2774018125363452e-01  0.0000000000000000e+00  -2.0938509370973396e-01  -2.0904670897894093e-01  -2.0874155842147277e-01  -2.0857724536679598e-01  -2.0855777681054183e-01  -2.1597002959257064e-01  -2.1599218196415282e-01  -2.1612552071591090e-01  -2.1637411789507535e-01  -2.1660473845664091e-01  0.0000000000000000e+00  -2.2998074400939231e-01  -2.2998156086537616e-01  -2.2997169528939854e-01  -2.2994993619935813e-01  -2.2991659435293865e-01  -2.2987235448547089e-01  -2.2981041034465843e-01  0.0000000000000000e+00  -2.2435200985864262e-01  -2.2400108962520818e-01  -2.2366720183994063e-01  -2.2348301829723688e-01  -2.2344966405088001e-01  -2.3025485175411495e-01  -2.3028694179965711e-01  -2.3042372463988509e-01  -2.3066437487161484e-01  -2.3086999243621037e-01  0.0000000000000000e+00  -2.3210109206228796e-01  -2.3206024120199481e-01  -2.3202557717235056e-01  -2.3199601200136494e-01  -2.3197083891311060e-01  -2.3195161585202498e-01  -2.3193126185403229e-01  0.0000000000000000e+00  -2.3870572862732653e-01  -2.3837668128495368e-01  -2.3804765699364078e-01  -2.3786216504694851e-01  -2.3781826934655054e-01  -2.4420416946296111e-01  -2.4424259777061805e-01  -2.4436683086330868e-01  -2.4457140256658888e-01  -2.4472635948936936e-01  0.0000000000000000e+00  -2.3420122443988295e-01  -2.3412008124537717e-01  -2.3406130522994054e-01  -2.3402382521425980e-01  -2.3400607798416362e-01  -2.3401034748233326e-01  -2.3403004209085848e-01  0.0000000000000000e+00  -2.5248382959647403e-01  -2.5220845247892687e-01  -2.5191716871519476e-01  -2.5174901525667776e-01  -2.5169904424561435e-01  -2.5789975893807299e-01  -2.5793916588748422e-01  -2.5803609217588253e-01  -2.5818034047323346e-01  -2.5826439704136100e-01  0.0000000000000000e+00  -2.3621402624088372e-01  -2.3609811721614091e-01  -2.3601833587512316e-01  -2.3597358418179135e-01  -2.3596167798925372e-01  -2.3598544193411788e-01  -2.3603946150237112e-01  0.0000000000000000e+00  -2.6578171149180230e-01  -2.6558638830808889e-01  -2.6536205917088251e-01  -2.6522801171011490e-01  -2.6517703846466173e-01  -2.7145095015973258e-01  -2.7148894418125719e-01  -2.7154746899290910e-01  -2.7161276509218801e-01  -2.7161296342050845e-01  0.0000000000000000e+00  -2.3808493980488696e-01  -2.3794298527036473e-01  -2.3784698976789781e-01  -2.3779608035415734e-01  -2.3778772263852627e-01  -2.3782507267717590e-01  -2.3790421721557087e-01  0.0000000000000000e+00  -2.7874317670063226e-01  -2.7864683604313811e-01  -2.7851119752165854e-01  -2.7842463863861872e-01  -2.7837786614722365e-01  -2.8499756147106392e-01  -2.8502448542612535e-01  -2.8503417457052505e-01  -2.8501326942914751e-01  -2.8492912995306424e-01  0.0000000000000000e+00  -2.3977618751022881e-01  -2.3961859445281852e-01  -2.3951207046343570e-01  -2.3945635123874442e-01  -2.3944872820050878e-01  -2.3949238745952078e-01  -2.3958524640844367e-01  0.0000000000000000e+00  -2.9154906795417324e-01  -2.9155547406450644e-01  -2.9152274420933877e-01  -2.9149256159603626e-01  -2.9145473700578434e-01  -2.9866057022315146e-01  -2.9868179575079068e-01  -2.9865070007008232e-01  -2.9854726620389493e-01  -2.9838206633092801e-01  0.0000000000000000e+00  -2.4126800183285202e-01  -2.4110571401519162e-01  -2.4099431203345259e-01  -2.4093471500310645e-01  -2.4092450936567442e-01  -2.4096682113458456e-01  -2.4106122363199378e-01  0.0000000000000000e+00  -3.0437221213950150e-01  -3.0449591904682838e-01  -3.0456901030355765e-01  -3.0459668454197258e-01  -3.0457136301333465e-01  -3.1258976206593869e-01  -3.1259819444674308e-01  -3.1251345895603816e-01  -3.1232271860656730e-01  -3.1209052875060528e-01  0.0000000000000000e+00  -2.4255884263304150e-01  -2.4240096815678824e-01  -2.4228834909342967e-01  -2.4222624918984853e-01  -2.4221240246224782e-01  -2.4224753719119216e-01  -2.4233238462255399e-01  0.0000000000000000e+00  -3.1746661246378799e-01  -3.1764953389430040e-01  -3.1781221626638045e-01  -3.1789578056590079e-01  -3.1788573854986313e-01  -3.2685712726245969e-01  -3.2683791644117050e-01  -3.2672307352505386e-01  -3.2651240836314094e-01  -3.2627089496619338e-01  0.0000000000000000e+00  -2.4366783258693811e-01  -2.4350972142740118e-01  -2.4339887800122742e-01  -2.4333477905231343e-01  -2.4331524913944039e-01  -2.4334070419375681e-01  -2.4341467100935502e-01  0.0000000000000000e+00  -3.3083055297547920e-01  -3.3114057680784148e-01  -3.3139886325101375e-01  -3.3152689502879418e-01  -3.3153153278195163e-01  -3.4149192186621774e-01  -3.4150434132798230e-01  -3.4138879145331580e-01  -3.4113081256165195e-01  -3.4082964122688048e-01  0.0000000000000000e+00  -2.4457097948961348e-01  -2.4444043570924265e-01  -2.4433474735322686e-01  -2.4427680134410995e-01  -2.4425776515733189e-01  -2.4426139367727193e-01  -2.4428911798441585e-01  0.0000000000000000e+00  -3.4488042821323989e-01  -3.4516739284595044e-01  -3.4543591966267334e-01  -3.4559004188245329e-01  -3.4561006898287433e-01  -3.5671701310620207e-01  -3.5664553747431804e-01  -3.5646551966979828e-01  -3.5616923661514505e-01  -3.5585464275533041e-01  0.0000000000000000e+00  -2.4533430087964261e-01  -2.4522142565078184e-01  -2.4509616246819535e-01  -2.4502351668134259e-01  -2.4503111050230361e-01  -2.4516028497886175e-01  -2.4540573615795439e-01  0.0000000000000000e+00  -3.5938608425291368e-01  -3.5968260456738943e-01  -3.5997754864236114e-01  -3.6011683825935253e-01  -3.6013172638863883e-01  -3.7192267673907153e-01  -3.7195504145158942e-01  -3.7188695125539872e-01  -3.7177088055206786e-01  -3.7158746878651339e-01  0.0000000000000000e+00  -2.4644937564821859e-01  -2.4582869746868613e-01  -2.4549458285109785e-01  -2.4539083878835294e-01  -2.4549389406421096e-01  -2.4576066119378245e-01  -2.4576270965299907e-01  0.0000000000000000e+00  -3.7434111210987381e-01  -3.7467890518329039e-01  -3.7490526265230073e-01  -3.7505987851626332e-01  -3.7511184714628876e-01  -3.8816249717904855e-01  -3.8810876806878231e-01  -3.8801301795739729e-01  -3.8782838465665459e-01  -3.8768693632601131e-01  0.0000000000000000e+00  0.0000000000000000e+00  0.0000000000000000e+00  0.0000000000000000e+00  0.0000000000000000e+00  0.0000000000000000e+00  0.0000000000000000e+00  0.0000000000000000e+00  0.0000000000000000e+00  -3.9053559821853323e-01  -3.9051237640502445e-01  -3.9051722900168767e-01  -3.9045928420970305e-01  -3.9041830080894996e-01  -4.0350376640716457e-01  -4.0347647635018735e-01  -4.0344953486245760e-01  -4.0351735262287486e-01  -4.0349585140173588e-01  0.0000000000000000e+00  0.0000000000000000e+00  0.0000000000000000e+00  0.0000000000000000e+00  0.0000000000000000e+00  0.0000000000000000e+00  0.0000000000000000e+00  0.0000000000000000e+00  0.0000000000000000e+00  -4.0541105677186234e-01  -4.0538362602478023e-01  -4.0538656443281956e-01  -4.0549289183575105e-01  -4.0551662692567675e-01  -4.2017882614342300e-01  -4.2027174319411503e-01  -4.2027592383548129e-01  -4.2007106593554344e-01  -4.2011744753974722e-01  0.0000000000000000e+00  0.0000000000000000e+00  0.0000000000000000e+00  0.0000000000000000e+00  0.0000000000000000e+00  0.0000000000000000e+00  0.0000000000000000e+00  0.0000000000000000e+00  0.0000000000000000e+00  -4.2151367466006939e-01  -4.2158212932613559e-01  -4.2157920615395733e-01  -4.2137580913047379e-01  -4.2142602654404510e-01  -4.3656434747140926e-01  -4.3599970762556467e-01  -4.3542986960007929e-01  -4.3525982813167147e-01  -4.3498234735148822e-01  0.0000000000000000e+00  0.0000000000000000e+00  0.0000000000000000e+00  0.0000000000000000e+00  0.0000000000000000e+00  0.0000000000000000e+00  0.0000000000000000e+00  0.0000000000000000e+00  0.0000000000000000e+00  -4.3719672273287680e-01  -4.3663964107953079e-01  -4.3608413026469345e-01  -4.3592382433379934e-01  -4.3565514167152092e-01  -4.5216455986869697e-01  -4.5113715905587992e-01  -4.5186444395497799e-01  -4.5166583728421034e-01  -4.5081241950592227e-01  0.0000000000000000e+00  0.0000000000000000e+00  0.0000000000000000e+00  0.0000000000000000e+00  0.0000000000000000e+00  0.0000000000000000e+00  0.0000000000000000e+00  0.0000000000000000e+00  0.0000000000000000e+00  -4.5209586649374733e-01  -4.5114311717564731e-01  -4.5186609352291279e-01  -4.5166616561595280e-01  -4.5084619631910061e-01  </DataArray> 
</PointData> 
</Piece>
</UnstructuredGrid>
</VTKFile>