<?xml version="1.0"?>
<VTKFile type="UnstructuredGrid"  version="0.1"  >
<UnstructuredGrid>
<Piece  NumberOfPoints="589" NumberOfCells="1080">
<Points>
<DataArray  type="Float64"  NumberOfComponents="3"  format="ascii">-9 0 0  -8 0 0  -7 0 0  -6 0 0  -5 0 0  -4 0 0  -3 0 0  -2 0 0  -1 0 0  0 0 0  1 0 0  2 0 0  3 0 0  4 0 0  5 0 0  6 0 0  7 0 0  8 0 0  9 0 0  -9 2 0  -8.000006216732533 1.999990685204971 0  -7.000013022909402 1.999982523497557 0  -6.000021827166542 1.99997645196297 0  -5.000035868794789 1.999972884564627 0  -4.000021219601267 1.999979742994522 0  -3.000006185472081 1.999986266976995 0  -1.999998871111269 1.999992400316233 0  -0.999997683796272 1.999997253097597 0  -3.296509314562504e-07 1.999999397940249 0  0.9999967300842579 1.999997966725521 0  1.999996925527044 1.99999332281342 0  3.000002549881382 1.999987647419928 0  4.000014286818187 1.999981641936589 0  5.00003126859976 1.999979397927939 0  6.000018792746802 1.999980126661739 0  7.000011159275354 1.999984618995963 0  8.000005328551826 1.999991659979989 0  9 2 0  -9 4 0  -8.000010075570321 3.999976758552426 0  -7.000018053519623 3.99995668667175 0  -6.000022704796925 3.999942887581432 0  -5.000024276242871 3.999938316528279 0  -4.000002942113492 3.999941599432553 0  -2.999988652873661 3.99996002596544 0  -1.999984957496196 3.999983985298232 0  -0.9999904548526363 4.000003272252648 0  -9.55408236502979e-07 4.000011089377812 0  0.999988309975708 4.000005136502232 0  1.99998201392091 3.999988942594034 0  2.999984826436572 3.999967039394284 0  3.999998169518007 3.999945103371646 0  5.000018658932582 3.999938067420899 0  6.000018215879635 3.999945199234014 0  7.000015107443939 3.999959043903983 0  8.00000864822371 3.999978124347767 0  9 4 0  -9 6 0  -8.000022324261824 5.999950156053925 0  -7.0000363907607 5.999905760925188 0  -6.00003590175268 5.999872413210068 0  -5.000019058298956 5.999855471046685 0  -3.999977401365316 5.999882861049173 0  -2.999958501649297 5.99993990832036 0  -1.99996610072822 5.999999673299223 0  -0.9999848759361464 6.000032876811703 0  -3.8387704173103e-06 6.000039581035285 0  0.9999791389134516 6.000028943612495 0  1.999966163001785 5.999999442107038 0  2.999961245560811 5.999949588463033 0  3.999970955497582 5.999897967511658 0  5.00000625352463 5.999872588820971 0  6.00002830049262 5.999883422431843 0  7.00003245809928 5.999912528060261 0  8.000020722966687 5.999953410101078 0  9 6 0  -9 8 0  -8.000067596772979 7.999901769471209 0  -7.000112945748466 7.999810657551363 0  -6.000114513997518 7.99973632849295 0  -5.000053921422559 7.999694699736643 0  -3.999973162365747 7.999820850039534 0  -2.999988307611518 7.999969026088388 0  -2.000018868551654 8.000041118549905 0  -1.000021626496899 8.000049175274585 0  -3.6913456124659e-06 8.000051496826552 0  1.00000975162712 8.000058743220539 0  2.000004231823291 8.000028909437329 0  2.99996926187635 7.99997813597308 0  3.99995738795554 7.999852011490079 0  5.000036264294772 7.999709656449747 0  6.000109933980267 7.999748573994035 0  7.00011336993221 7.999818919096374 0  8.000068740702529 7.999905873859173 0  9 8 0  -9 10 0  -8.000201803770048 9.999824954089577 0  -7.00036456341485 9.999648493354005 0  -6.000441711931077 9.999469559122041 0  -5.000368427010949 9.999287934616806 0  -4.000240163386716 9.999695751275766 0  -3.000261648675254 10.0000463136691 0  -2.000210041894339 9.999985426171012 0  -1.000097556437445 9.999965890960562 0  -1.487298635285719e-05 9.999961128397313 0  1.000067051570565 9.999961544383799 0  2.000176041838291 9.999959541765575 0  3.000271995462766 10.00008511880718 0  4.000259940840808 9.999755245308204 0  5.000404730072812 9.999319842483205 0  6.000472382042184 9.99948810796098 0  7.000386466696999 9.999658923157519 0  8.000213154892577 9.999829684778707 0  9 10 0  -9 12 0  -8.000491923903144 11.99975389575797 0  -7.00095819560189 11.99949638816702 0  -6.001369812398858 11.99921383824455 0  -5.001690806988093 11.9988872212701 0  -4.001624964302556 11.99963185234166 0  -3.001684707402966 12.0003691148062 0  -2.001160018847877 12.00027947669253 0  -1.000575484346557 12.00023063231284 0  3.185503057650871e-05 12.00022053624255 0  1.000645486419997 12.00025068196662 0  2.001251538435054 12.00032995232032 0  3.001822652668938 12.00048062410341 0  4.001759880329771 11.99968851536456 0  5.001801581680017 11.99888989372801 0  6.00144850776852 11.999217655997 0  7.001008853609813 11.99949927221303 0  8.000516760860869 11.99975536220458 0  9 12 0  -9 14 0  -8.000884108165453 13.99972856164505 0  -7.001769575264724 13.99944464414238 0  -6.002658909599929 13.99913466580721 0  -5.003557612761602 13.99878288255145 0  -4.003566615962331 13.99965472537297 0  -3.003572440879338 14.00053759165275 0  -2.00235040617139 14.00041055572994 0  -1.001145085173548 14.00034056038402 0  5.353632181307628e-05 14.000319141783 0  1.001255026754075 14.00034352271696 0  2.002468288710197 14.00041504710478 0  3.003700327391285 14.0005376162145 0  4.003710062562205 13.99965793373475 0  5.003715410923311 13.99878373369005 0  6.002769656375342 13.99913221263846 0  7.001840235375216 13.99944197978501 0  8.000918566169897 13.99972698717314 0  9 14 0  -9 16 0  -8.00127011225819 15.99975321817562 0  -7.002564259961437 15.99949730000438 0  -6.003908558262594 15.99922294839539 0  -5.005333385255795 15.99892069539811 0  -4.005383818419115 15.99966653815833 0  -3.005336447544483 16.00040845198982 0  -2.00347586065655 16.00031406825092 0  -1.001688733734505 16.00025666116522 0  6.376749205336938e-05 16.00023498191851 0  1.001818365980938 16.00024821512867 0  2.003611807178133 16.00029638723218 0  3.005483189352532 16.00038018105574 0  4.005536770769816 15.9996354732452 0  5.005489997108667 15.99889019161469 0  6.004023275072703 15.99920190556197 0  7.002639280331209 15.99948392859215 0  8.001307166787015 15.99974669671974 0  9 16 0  -9 18 0  -8.001559184060987 17.99981443975719 0  -7.003156936236537 17.99962376770344 0  -6.004833829438026 17.99942296232206 0  -5.006634435134305 17.99920720713135 0  -4.006710855477849 17.99966962784305 0  -3.006637492949255 18.00013145402843 0  -2.004309936096522 18.00007016639528 0  -1.002095035102953 18.00003035887145 0  6.555888542782195e-05 18.00001167428367 0  1.002227370754121 18.0000136425534 0  2.004445847899134 18.00003571003996 0  3.006779068227962 18.00007713030589 0  4.006856895139065 17.99961862437874 0  5.006782803191223 17.99916146837914 0  6.004943475399222 17.99939054762429 0  7.003229225980272 17.99960301101756 0  8.001595081926421 17.99980430711856 0  9 18 0  -9 20 0  -8.001693254197262 19.99989609664273 0  -7.003431606345331 19.99979078803899 0  -6.005261879009476 19.99968281859099 0  -5.007234345807019 19.99957122857578 0  -4.00732169659127 19.99967003512869 0  -3.007235704283274 19.99976819748815 0  -2.004696165063298 19.99974070663542 0  -1.002285428480117 19.99971993837666 0  6.241850464065012e-05 19.99970612739767 0  1.002410900950514 19.99969903278914 0  2.004823509734039 19.99969795452818 0  3.007366063425274 19.99970169193642 0  4.007453707114736 19.99961020915641 0  5.007367240901593 19.99951966458154 0  6.005360779841692 19.99964570576805 0  7.003497162580613 19.99976678815798 0  8.001725916878238 19.99988431886799 0  8.999999999995476 19.99999999999313 0  -9 22 0  -8.001646258184886 21.9999833607665 0  -7.003337159849023 21.99996844878196 0  -6.005118751711312 21.99995716018508 0  -5.007039878254554 21.99995173235643 0  -4.007125483240806 21.99966685717983 0  -3.007040713456451 21.99938127762489 0  -2.004569997489833 21.99938447863784 0  -1.002225591456013 21.99938182168355 0  5.672876662776075e-05 21.99937384760381 0  1.002339236279545 21.99936047986195 0  2.004684180015385 21.99934103610499 0  3.007155713174591 21.99931421659624 0  4.007240019338341 21.99960750794313 0  5.007153854371511 21.99990135453775 0  6.005204223983592 21.99992069152628 0  7.003394121469547 21.99994475831246 0  8.001674728221195 21.9999717019268 0  9 22 0  -9 24 0  -8.0014199956385 24.00006371648798 0  -7.002878486741563 24.00013161531258 0  -6.004415047764098 24.00020805312788 0  -5.006071361062486 24.00029774461863 0  -4.006145205960865 23.99966040454357 0  -3.00607254151824 23.99902244216387 0  -2.00394132096138 23.99905157497223 0  -1.00191867205967 23.99906487169393 0  5.035311918078429e-05 23.99906303922476 0  1.00201922033964 23.99904611960452 0  2.0040413755552 23.99901349297668 0  3.006171709509634 23.99896387276077 0  4.006242210608253 23.99960911168301 0  5.006166763810468 24.000254689735 0  6.004487168789296 24.00017674303657 0  7.002926822834288 24.00011120923319 0  8.001444234396471 24.00005365384608 0  9 24 0  -9 26 0  -8.001038967071898 26.00012735707518 0  -7.002105974943417 26.00026063456934 0  -6.003229823917519 26.00040592979255 0  -5.004440710108169 26.0005697051596 0  -4.004495172558372 25.99965120159516 0  -3.00444284038253 25.99873222350987 0  -2.002880983239374 25.99878176938168 0  -1.001398449547395 25.99880819213026 0  4.472110584053558e-05 25.99881232948814 0  1.001487478602608 25.99879433014242 0  2.002968752952645 25.99875365483629 0  3.004528446248058 25.99868907369 0  4.004577394412502 25.99961368228825 0  5.004520577398902 26.0005384593135 0  6.003290739605879 26.00038314473569 0  7.002147052575085 26.00024575348344 0  8.001059639308449 26.0001200090567 0  9 26 0  -9 28 0  -8.00054486067771 28.00016733224185 0  -7.001104431011213 28.00034159212352 0  -6.001693846182353 28.00052988672257 0  -5.002328919673219 28.00073968712163 0  -4.002358805721435 27.99964014474643 0  -3.002332247182316 27.99854036059124 0  -2.001505927151094 27.99860419722874 0  -1.000721940766592 27.99864039060853 0  4.085662995772547e-05 27.99864989705337 0  1.000803075442014 27.99863296852509 0  2.001585303812907 27.99858915350572 0  3.002408621216302 27.99851729566841 0  4.002431061050682 27.999620230264 0  5.002398378227038 28.00072324699134 0  6.00174725153063 28.00051787317694 0  7.001140643862688 28.00033373335306 0  8.000563144617962 28.000163447366
[...]
<PointData  Scalars="f_44-1"> 
<DataArray  type="Float64"  Name="f_44-1"  format="ascii">1.3751808923205321e-03  9.9282692125523956e-05  7.1043848811862883e-05  1.8603403230166377e-04  -1.6642374823331453e-03  0.0000000000000000e+00  0.0000000000000000e+00  0.0000000000000000e+00  0.0000000000000000e+00  0.0000000000000000e+00  0.0000000000000000e+00  0.0000000000000000e+00  0.0000000000000000e+00  0.0000000000000000e+00  1.3932492121796155e-03  9.9019513741075229e-05  7.1638606437676640e-05  1.8431884705008553e-04  -1.6953214662502442e-03  7.1032212313423798e-02  7.1091107455299660e-02  7.1045648832743793e-02  7.0854895369853302e-02  7.0761587466662348e-02  0.0000000000000000e+00  0.0000000000000000e+00  0.0000000000000000e+00  0.0000000000000000e+00  0.0000000000000000e+00  0.0000000000000000e+00  0.0000000000000000e+00  0.0000000000000000e+00  0.0000000000000000e+00  7.1226717927270505e-02  7.1285576155417085e-02  7.1238485885365549e-02  7.1045366802718765e-02  7.0951658739878146e-02  1.4206174541696961e-01  1.4205560649053900e-01  1.4201746806357063e-01  1.4200115412130118e-01  1.4202207782315651e-01  0.0000000000000000e+00  0.0000000000000000e+00  0.0000000000000000e+00  0.0000000000000000e+00  0.0000000000000000e+00  0.0000000000000000e+00  0.0000000000000000e+00  0.0000000000000000e+00  0.0000000000000000e+00  1.4243591143123255e-01  1.4243367239753554e-01  1.4239967839651130e-01  1.4238787527754557e-01  1.4241568980684580e-01  2.1308311284378165e-01  2.1307672968109706e-01  2.1307015962399850e-01  2.1306280374814146e-01  2.1304197420165460e-01  0.0000000000000000e+00  0.0000000000000000e+00  0.0000000000000000e+00  0.0000000000000000e+00  0.0000000000000000e+00  0.0000000000000000e+00  0.0000000000000000e+00  0.0000000000000000e+00  0.0000000000000000e+00  2.1365483163563906e-01  2.1363766318828598e-01  2.1363235334589215e-01  2.1363258691803397e-01  2.1362997143132936e-01  2.8414610598180129e-01  2.8413625773535262e-01  2.8411896614823567e-01  2.8407424671053294e-01  2.8403675837105841e-01  0.0000000000000000e+00  0.0000000000000000e+00  0.0000000000000000e+00  0.0000000000000000e+00  0.0000000000000000e+00  0.0000000000000000e+00  0.0000000000000000e+00  0.0000000000000000e+00  0.0000000000000000e+00  2.8483727362575595e-01  2.8484423480364762e-01  2.8484236868342228e-01  2.8484600466012078e-01  2.8484956226741209e-01  3.5523991069143140e-01  3.5522567727124549e-01  3.5520911804888594e-01  3.5520849116055114e-01  3.5525798546362386e-01  0.0000000000000000e+00  1.0988595838910067e+00  1.0987679003393143e+00  1.0989135992489865e+00  1.0989309652427288e+00  1.0989268605490876e+00  1.0987991408775561e+00  1.0980546085037941e+00  0.0000000000000000e+00  3.5601424310408625e-01  3.5601916891194846e-01  3.5603148184850014e-01  3.5605442262298087e-01  3.5606617773424304e-01  4.2636831081970955e-01  4.2634299883183369e-01  4.2629205942008086e-01  4.2622021184681369e-01  4.2608084106434368e-01  0.0000000000000000e+00  1.0990102260089132e+00  1.0990259330026593e+00  1.0990257133972858e+00  1.0990010334916571e+00  1.0990007925621996e+00  1.0990009014869835e+00  1.0991747507777321e+00  0.0000000000000000e+00  4.2701314775378924e-01  4.2711936834783981e-01  4.2723264089885110e-01  4.2730076114659898e-01  4.2732599332917265e-01  4.9761826239146811e-01  4.9757993307259918e-01  4.9748182750212749e-01  4.9732211148111677e-01  4.9708550468408647e-01  0.0000000000000000e+00  1.0994761704759943e+00  1.0992464295148960e+00  1.0990891230935091e+00  1.0990326011608307e+00  1.0990542299995418e+00  1.0991484480376830e+00  1.0993169646972272e+00  0.0000000000000000e+00  4.9811610157001762e-01  4.9838489604209091e-01  4.9858117771359733e-01  4.9869780055658514e-01  4.9873726300051924e-01  5.6911649828799060e-01  5.6906728192976297e-01  5.6892587841930098e-01  5.6868888058416822e-01  5.6833555747959175e-01  0.0000000000000000e+00  1.0993513723894621e+00  1.0990409890724566e+00  1.0988486200753276e+00  1.0987743485171593e+00  1.0988139773409433e+00  1.0989675935942416e+00  1.0992536033385936e+00  0.0000000000000000e+00  5.6958802400301178e-01  5.6996065148948349e-01  5.7022862679536912e-01  5.7038626301092532e-01  5.7043615185328689e-01  6.4098289732297642e-01  6.4092751750639831e-01  6.4075759960006173e-01  6.4046933161173381e-01  6.4004481954636028e-01  0.0000000000000000e+00  1.0987691886152144e+00  1.0983776623747490e+00  1.0981393478113304e+00  1.0980508989905675e+00  1.0981094565316285e+00  1.0983154735452474e+00  1.0986847360218337e+00  0.0000000000000000e+00  6.4157719788116752e-01  6.4200333450126579e-01  6.4230368014092376e-01  6.4248061951318414e-01  6.4253476789781472e-01  7.1329950493191441e-01  7.1324377425143592e-01  7.1306484145506255e-01  7.1275962269826709e-01  7.1231317746401546e-01  0.0000000000000000e+00  1.0975248939515174e+00  1.0970969886205639e+00  1.0968417319697392e+00  1.0967496707812825e+00  1.0968189721881332e+00  1.0970514249336363e+00  1.0974584270990992e+00  0.0000000000000000e+00  7.1413002390158842e-01  7.1456437007389040e-01  7.1486605112205071e-01  7.1504304266341445e-01  7.1509558496250414e-01  7.8609603903340008e-01  7.8604578430335514e-01  7.8587813773148962e-01  7.8559099572572566e-01  7.8517273530612097e-01  0.0000000000000000e+00  1.0955632350556517e+00  1.0951451185660912e+00  1.0948992547129570e+00  1.0948119162740513e+00  1.0948824592971496e+00  1.0951134881627966e+00  1.0955120003405006e+00  0.0000000000000000e+00  7.8726107143723967e-01  7.8765422861590551e-01  7.8792346715492279e-01  7.8808095989632643e-01  7.8812608407948515e-01  8.5934677294183515e-01  8.5930709952205653e-01  8.5916929774827200e-01  8.5893227212669476e-01  8.5858819694762012e-01  0.0000000000000000e+00  1.0929002444295604e+00  1.0925369752019152e+00  1.0923261472501642e+00  1.0922516685323358e+00  1.0923139819246312e+00  1.0925161538555535e+00  1.0928602453266039e+00  0.0000000000000000e+00  8.6091343202140125e-01  8.6122135458191618e-01  8.6142833891729953e-01  8.6154904255806808e-01  8.6158183681233491e-01  9.3297475386449569e-01  9.3294950527693565e-01  9.3285642790912593e-01  9.3269529644897065e-01  9.3246243471973045e-01  0.0000000000000000e+00  1.0896299956303339e+00  1.0893604827557433e+00  1.0892066912609308e+00  1.0891519841824802e+00  1.0891978053926332e+00  1.0893473755737579e+00  1.0895977926782427e+00  0.0000000000000000e+00  9.3497253705422623e-01  9.3516079200535607e-01  9.3528268256902825e-01  9.3535343633559787e-01  9.3537039525838750e-01  1.0068615088165942e+00  1.0068528892621014e+00  1.0068142704425469e+00  1.0067460368793963e+00  1.0066487328797502e+00  0.0000000000000000e+00  1.0859141094965024e+00  1.0857667273100642e+00  1.0856857070773489e+00  1.0856556250400506e+00  1.0856787779442378e+00  1.0857582494389775e+00  1.0858865023647772e+00  0.0000000000000000e+00  1.0092790121114079e+00  1.0093262056404333e+00  1.0093493414104411e+00  1.0093624203101330e+00  1.0093617866845623e+00  1.0808608830962552e+00  1.0808692557556021e+00  1.0808887647498968e+00  1.0809200742001381e+00  1.0809677058670424e+00  0.0000000000000000e+00  1.0819630645035965e+00  1.0819527348673936e+00  1.0819523011214169e+00  1.0819490940681229e+00  1.0819460561805174e+00  1.0819458779939162e+00  1.0819370790071499e+00  0.0000000000000000e+00  1.0836455667530533e+00  1.0835455231635176e+00  1.0834668657268967e+00  1.0834207763528818e+00  1.0834027037193790e+00  1.1548154657561753e+00  1.1548393345043668e+00  1.1549142574025510e+00  1.1550408313439082e+00  1.1552269518620755e+00  0.0000000000000000e+00  1.0780131827794561e+00  1.0781398732794820e+00  1.0782190612603748e+00  1.0782420776473600e+00  1.0782122509993830e+00  1.0781316583010088e+00  1.0779859362864297e+00  0.0000000000000000e+00  1.1578769462961098e+00  1.1576393949752688e+00  1.1574669064078689e+00  1.1573665657475312e+00  1.1573330944284410e+00  1.2285739450370718e+00  1.2286101226854595e+00  1.2287316720928816e+00  1.2289388072838781e+00  1.2292418229605653e+00  0.0000000000000000e+00  1.0743010077319028e+00  1.0745497177563210e+00  1.0746988182236006e+00  1.0747444989880426e+00  1.0746901805207765e+00  1.0745371483949440e+00  1.0742695564175746e+00  0.0000000000000000e+00  1.2317906745808249e+00  1.2314404127333067e+00  1.2311923764443804e+00  1.2310486693777671e+00  1.2310035195653966e+00  1.3020076695589879e+00  1.3020516250872429e+00  1.3022058686412419e+00  1.3024699988484993e+00  1.3028553792690771e+00  0.0000000000000000e+00  1.0710376092397964e+00  1.0713798422410841e+00  1.0715813019362848e+00  1.0716434640059185e+00  1.0715695248637140e+00  1.0713598441865579e+00  1.0709987916987238e+00  0.0000000000000000e+00  1.3052368642906966e+00  1.3048113844107601e+00  1.3045146639618237e+00  1.3043433718278228e+00  1.3042915571602802e+00  1.3750247268914435e+00  1.3750710744347054e+00  1.3752404804261271e+00  1.3755318266648513e+00  1.3759558086595576e+00  0.0000000000000000e+00  1.0683852768630988e+00  1.0687818970281997e+00  1.0690120377496541e+00  1.0690824426621277e+00  1.0689957726784951e+00  1.0687513676555023e+00  1.0683356700613478e+00  0.0000000000000000e+00  1.3781151918818115e+00  1.3776608684046825e+00  1.3773481471182514e+00  1.3771682805227936e+00  1.3771155533743276e+00  1.4475796921013515e+00  1.4476230001612751e+00  1.4477886507425366e+00  1.4480747681988557e+00  1.4484893172054929e+00  0.0000000000000000e+00  1.0664389562842866e+00  1.0668442226670665e+00  1.0670757730196134e+00  1.0671449919502716e+00  1.0670536634668359e+00  1.0667999845998137e+00  1.0663744983055450e+00  0.0000000000000000e+00  1.4503873583523315e+00  1.4499543357088840e+00  1.4496604166945919e+00  1.4494919928323067e+00  1.4494441441135075e+00  1.5196784776210237e+00  1.5197136388871393e+00  1.5198571109240733e+00  1.5201064393627981e+00  1.5204649500518201e+00  0.0000000000000000e+00  1.0652134577010850e+00  1.0655813773983023e+00  1.0657866799412155e+00  1.0658452319988345e+00  1.0657574466896405e+00  1.0655205601411735e+00  1.0651311740967810e+00  0.0000000000000000e+00  1.5220836486892104e+00  1.5217194491812469e+00  1.5214765989874512e+00  1.5213379945631738e+00  1.5213000142416717e+00  1.5913749352210871e+00  1.5913993794685364e+00  1.5915079559774727e+00  1.5916987787116801e+00  1.5919657587673111e+00  0.0000000000000000e+00  1.0646459687977079e+00  1.0649311530484216e+00  1.0650843253214848e+00  1.0651240269543818e+00  1.0650503586688429e+00  1.0648591352294972e+00  1.0645503681959840e+00  0.0000000000000000e+00  1.5933022683526927e+00  1.5930429380796818e+00  1.5928767331236775e+00  1.5927816489622537e+00  1.5927567864706411e+00  1.6627609714614893e+00  1.6627725855795801e+00  1.6628355995070025e+00  1.6629535778160545e+00  1.6631129441020873e+00  0.0000000000000000e+00  1.0645844873000081e+00  1.0647524136357338e+00  1.0648465628597694e+00  1.0648682552655058e+00  1.0648117915073188e+00  1.0646547277088558e+00  1.0644260932581706e+00  0.0000000000000000e+00  1.6641856706788538e+00  1.6640645151787028e+00  1.6639850774095262e+00  1.6639391222071471e+00  1.6639278950226770e+00  1.7339569524843024e+00  1.7339581016444694e+00  1.7339806088976215e+00  1.7340183320019211e+00  1.7340188083078738e+00  0.0000000000000000e+00  1.0647279897470590e+00  1.0649020172829735e+00  1.0649026007912374e+00  1.0649026252660418e+00  1.0648779541720050e+00  1.0648773336677673e+00  1.0648915629236262e+00  0.0000000000000000e+00  1.7349936074886254e+00  1.7349481812277938e+00  1.7349498690728637e+00  1.7349463003792345e+00  1.7349457501899852e+00  1.8050864107727012e+00  1.8050809347630450e+00  1.8050703426676045e+00  1.8050327001478239e+00  1.8049838269879332e+00  0.0000000000000000e+00  1.0658467571118682e+00  1.0651051365169060e+00  1.0649799009874439e+00  1.0649761368438926e+00  1.0649929234836470e+00  1.0651359588154938e+00  1.0650453959407316e+00  0.0000000000000000e+00  1.8057346562197938e+00  1.8058597280428279e+00  1.8059077168774988e+00  1.8059260581054808e+00  1.8059299923454064e+00  1.8762345929995043e+00  1.8762301072967280e+00  1.8762148015380102e+00  1.8761892303222507e+00  1.8761716324065205e+00  0.0000000000000000e+00  0.0000000000000000e+00  0.0000000000000000e+00  0.0000000000000000e+00  0.0000000000000000e+00  0.0000000000000000e+00  0.0000000000000000e+00  0.0000000000000000e+00  0.0000000000000000e+00  1.8769385444744975e+00  1.8769375293782034e+00  1.8769362571583705e+00  1.8769451222596834e+00  1.8769480459613175e+00  1.9474296417230388e+00  1.9474114174172679e+00  1.9474056783243614e+00  1.9473953928873082e+00  1.9473674483822470e+00  0.0000000000000000e+00  0.0000000000000000e+00  0.0000000000000000e+00  0.0000000000000000e+00  0.0000000000000000e+00  0.0000000000000000e+00  0.0000000000000000e+00  0.0000000000000000e+00  0.0000000000000000e+00  1.9480167840932112e+00  1.9479876606095741e+00  1.9479875575513257e+00  1.9479909176876440e+00  1.9479862706882329e+00  2.0185873064885440e+00  2.0186243966219499e+00  2.0186300580053627e+00  2.0185818806805642e+00  2.0185724983494024e+00  0.0000000000000000e+00  0.0000000000000000e+00  0.0000000000000000e+00  0.0000000000000000e+00  0.0000000000000000e+00  0.0000000000000000e+00  0.0000000000000000e+00  0.0000000000000000e+00  0.0000000000000000e+00  2.0189971127673991e+00  2.0190269022822913e+00  2.0190298353729133e+00  2.0189826024190904e+00  2.0189758975131302e+00  2.0899663842818232e+00  2.0899938963206082e+00  2.0898524070731073e+00  2.0898794955394275e+00  2.0900257157294324e+00  0.0000000000000000e+00  0.0000000000000000e+00  0.0000000000000000e+00  0.0000000000000000e+00  0.0000000000000000e+00  0.0000000000000000e+00  0.0000000000000000e+00  0.0000000000000000e+00  0.0000000000000000e+00  2.0901810238377903e+00  2.0901987420517623e+00  2.0900567212750456e+00  2.0900812912408893e+00  2.0902216996994998e+00  2.1632333672951329e+00  2.1608101961886041e+00  2.1608523828846211e+00  2.1608940302403550e+00  2.1594360883180483e+00  0.0000000000000000e+00  0.0000000000000000e+00  0.0000000000000000e+00  0.0000000000000000e+00  0.0000000000000000e+00  0.0000000000000000e+00  0.0000000000000000e+00  0.0000000000000000e+00  0.0000000000000000e+00  2.1631853391351683e+00  2.1608131266680446e+00  2.1608539944039142e+00  2.1608934016586994e+00  2.1594630954156764e+00  </DataArray> 
</PointData> 
</Piece>
</UnstructuredGrid>
</VTKFile>