<?xml version="1.0"?>
<VTKFile type="UnstructuredGrid"  version="0.1"  >
<UnstructuredGrid>
<Piece  NumberOfPoints="589" NumberOfCells="1080">
<Points>
<DataArray  type="Float64"  NumberOfComponents="3"  format="ascii">-9 0 0  -8 0 0  -7 0 0  -6 0 0  -5 0 0  -4 0 0  -3 0 0  -2 0 0  -1 0 0  0 0 0  1 0 0  2 0 0  3 0 0  4 0 0  5 0 0  6 0 0  7 0 0  8 0 0  9 0 0  -9 2 0  -8.000007400317282 1.999989023877941 0  -7.000015522569688 1.99997938596757 0  -6.000026055119264 1.999972171176459 0  -5.000042850049085 1.999967850155872 0  -4.000025564426658 1.999976028925667 0  -3.000007762336401 1.999983703205351 0  -1.999999023394514 1.999990870645123 0  -0.9999974442553202 1.999996535227061 0  -3.389774935799913e-07 1.999999029053269 0  0.9999964325088662 1.999997339873694 0  1.999996885152589 1.999991885507679 0  3.000003714695001 1.999985199137956 0  4.000017749290042 1.99997806692085 0  5.000038027158942 1.999975237758064 0  6.000022912425528 1.999976255983053 0  7.00001361105352 1.999981679601894 0  8.000006495315967 1.999990081397784 0  9 2 0  -9 4 0  -8.000011912728654 3.999972695593184 0  -7.000021403976427 3.999949079969427 0  -6.000027060633291 3.999932767548341 0  -5.000029179366636 3.99992720741749 0  -4.000004112313217 3.999931027134657 0  -2.999987233830031 3.999952527048115 0  -1.999982683805742 3.999980494904396 0  -0.999988832462766 4.000002989728185 0  -8.11922770738305e-07 4.000012086628677 0  0.9999869411759795 4.000005090860102 0  1.999979887568348 3.999986102691945 0  2.99998348550885 3.999960400235629 0  3.999999386709029 3.99993460589883 0  5.000023592313708 3.999926133674059 0  6.000022571247382 3.999934890833038 0  7.000018479389099 3.999951447218181 0  8.000010508662923 3.99997409632066 0  9 4 0  -9 6 0  -8.000026110207969 5.999941615506192 0  -7.000042623684637 5.999889564235798 0  -6.000042217867734 5.999850357709423 0  -5.000022793215332 5.999830239342907 0  -3.99997404236287 5.999862093786746 0  -2.999951792909119 5.999928544790925 0  -1.999960373180847 5.999998177382088 0  -0.9999819790705049 6.000036887832779 0  -3.826454108201322e-06 6.000044700242648 0  0.9999765754180128 6.000032231966472 0  1.999961700942449 5.999997701867454 0  2.999956225559769 5.999939371343842 0  3.999967818561289 5.99987893392926 0  5.000009286800847 5.999849132497178 0  6.000034513200116 5.999862331603517 0  7.000038862308354 5.999896847210536 0  8.000024672449555 5.999945096022095 0  9 6 0  -9 8 0  -8.000078684601732 7.999885217836066 0  -7.000131514764969 7.999778685984757 0  -6.000133447110014 7.999691611456353 0  -5.000063047135783 7.999642469171642 0  -3.999968883987874 7.999789288837706 0  -2.999986162749781 7.999961755028155 0  -2.000021404246599 8.000045764791158 0  -1.000024319771379 8.000055304642723 0  -3.195452866455728e-06 8.000058072684238 0  1.000012679951625 8.00006648952051 0  2.000006404878157 8.000031573060953 0  2.999965813064382 7.99997208665401 0  3.999952252606893 7.999824683687498 0  5.000044566898914 7.999658353764539 0  6.000129952648058 7.999704528915388 0  7.000133387713313 7.999787331617061 0  8.000080755129558 7.99988948808059 0  9 8 0  -9 10 0  -8.000234599565681 9.99979588111619 0  -7.000423916073848 9.999590074702899 0  -6.000513926917945 9.999381294978823 0  -5.000429377413588 9.999169211728175 0  -4.000280173174104 9.999643086214864 0  -3.000304488568473 10.00005050252308 0  -2.000243792557134 9.999980231136551 0  -1.000112566960586 9.999957681659883 0  -1.591903672455096e-05 9.999952182461326 0  1.000079902772114 9.999952619654351 0  2.000207314160818 9.999950125409443 0  3.000319717497058 10.0000961494439 0  4.000306001413028 9.999711138654789 0  5.000474955503961 9.999203119571229 0  6.000553030276087 9.999400342898552 0  7.000452079997673 9.999600471865913 0  8.000249260169468 9.999800503244343 0  9 10 0  -9 12 0  -8.000571289246547 11.99971342727932 0  -7.001112956466039 11.99941358061995 0  -6.00159151973551 11.99908458268703 0  -5.001965443658445 11.99870428944634 0  -4.001889285566556 11.9995681460317 0  -3.001958285029301 12.00042339022139 0  -2.001345608122519 12.00031962492668 0  -1.000664238319664 12.00026330094662 0  4.316778470161564e-05 12.0002520119389 0  1.000757692096139 12.00028751042412 0  2.001463435577713 12.00038017898656 0  3.00212879713586 12.00055604038938 0  4.00205578203025 11.99963265676983 0  5.002104242658033 11.99870164987157 0  6.001691399626297 11.99908482592305 0  7.001177845953213 11.9994141816276 0  8.0006032790698 11.99971376792137 0  9 12 0  -9 14 0  -8.001025729195121 13.99968421928204 0  -7.002053231625665 13.99935395136977 0  -6.003085649814034 13.99899343090688 0  -5.004129638213775 13.99858438615954 0  -4.0041405405961 13.99959392935494 0  -3.004146805279571 14.00061626330513 0  -2.002723587482566 14.00046953044916 0  -1.001320666363761 14.00038902495269 0  7.395251497037954e-05 14.000364916168 0  1.001471682635958 14.00039399640297 0  2.002883133826217 14.00047785790913 0  3.004316712398437 14.0006210693377 0  4.004328119226551 13.9995963250763 0  5.004334181309483 13.99857796755022 0  6.003230836623993 13.99898517093451 0  7.002146625974338 13.99934731609696 0  8.001071498925841 13.99968063945478 0  9 14 0  -9 16 0  -8.001472069637742 15.99971305990613 0  -7.002972186065533 15.99941554361931 0  -6.004530831042413 15.99909669391998 0  -5.006183452309112 15.99874556301732 0  -4.006242317049304 15.99960687503761 0  -3.006186923249 16.00046361943487 0  -2.004022985128514 16.00035533449364 0  -1.00194502825496 16.00028981278574 0  9.233370193960263e-05 16.00026565169334 0  1.002131998183756 16.00028193528444 0  2.004216877827483 16.00033871376896 0  3.006392635007817 16.00043678579802 0  4.006455004868592 15.99956960858407 0  5.00640047183543 15.99870177270098 0  6.00469073896624 15.9990661430756 0  7.003077254833678 15.99939601380297 0  8.001524122455622 15.99970350749841 0  9 16 0  -9 18 0  -8.001805158301392 17.99978423130319 0  -7.003655127994978 17.99956257411666 0  -6.005597051949342 17.99932925042677 0  -5.007682711083141 17.99907872734975 0  -4.00777149138721 17.99960987994272 0  -3.007686115750166 18.00014034969394 0  -2.004981789511072 18.00007074445607 0  -1.002408571648486 18.00002584511896 0  0.0001014429669485183 18.00000528752288 0  1.002612867023911 18.00000855830955 0  2.005190221311307 18.00003503055141 0  3.007901093106347 18.00008383559866 0  4.007991557368664 17.99954967806438 0  5.007905406413967 17.99901710264504 0  6.005762224749217 17.99928536584564 0  7.003764328197198 17.99953437464597 0  8.001859479231703 17.99977043663722 0  9 18 0  -9 20 0  -8.001958018768507 19.99987893992878 0  -7.00396830888604 19.99975629571698 0  -6.006085135193865 19.99963066112694 0  -5.008366748370288 19.99950097924914 0  -4.008467977884989 19.99960997337319 0  -3.008368187353385 19.99971820893415 0  -2.005419915625577 19.99968781777656 0  -1.002621086184528 19.9996650132706 0  0.0001048393289049083 19.9996501107251 0  1.002831629911707 19.9996428596176 0  2.005633018070487 19.99964246351305 0  3.008585443021708 19.99964753159056 0  4.008687196800795 19.99953977566912 0  5.008586793578051 19.99943309763611 0  6.006249054116377 19.99958167630817 0  7.004077047287747 19.99972455562429 0  8.002012223826885 19.99986334442836 0  8.999999999992031 19.9999999999934 0  -9 22 0  -8.00190088610173 21.99997996602137 0  -7.003853413281333 21.99996197393641 0  -6.005910838163394 21.99994826377096 0  -5.008129634203406 21.99994147573269 0  -4.008228700972458 21.99960602006829 0  -3.00813058722005 21.99926971373258 0  -2.005264075047292 21.99927470526776 0  -1.002543777709989 21.99927274972653 0  0.0001047700054164958 21.99926450426581 0  1.002753781249168 21.99924990311515 0  2.005475447058115 21.99922817135047 0  3.00834416851461 21.99919781173175 0  4.008441916764001 21.99953660354586 0  5.008341896455242 21.99987600047433 0  6.006069575453147 21.9999007727077 0  7.003959004218347 21.99993107791911 0  8.001953605884598 21.99996474736514 0  9 22 0  -9 24 0  -8.001636257130176 24.0000728248745 0  -7.003316954156929 24.00015052294677 0  -6.005087775354111 24.0002381694714 0  -5.006996814167215 24.00034125750133 0  -4.007082227886564 23.99959827586322 0  -3.006998385713134 23.99885452408551 0  -2.004527063712847 23.99888923257355 0  -1.002181172818698 23.99890550572204 0  0.0001029346613854319 23.99890417885261 0  1.002387201464489 23.9988853165056 0  2.004733554775842 23.99884821597507 0  3.007205597441453 23.99879140224117 0  4.007287205802937 23.99953838985681 0  5.007199551242481 24.00028571443981 0  6.00523985866094 24.00019771391169 0  7.003418342305421 24.00012412507501 0  8.001686943265007 24.00005979810414 0  9 24 0  -9 26 0  -8.001192806377851 26.00014620971342 0  -7.00241790336347 26.00029928782497 0  -6.003708459156685 26.00046630668066 0  -5.005099230008684 26.0006547608991 0  -4.005162259789617 25.99958727977153 0  -3.005102159060928 25.99851919916679 0  -2.003291878968267 25.99857716671893 0  -1.001573043973845 25.99860832793908 0  0.0001006137493352195 25.99861365696587 0  1.001774203668179 25.99859333469842 0  2.003492820452208 25.99854674931269 0  3.005302687638824 25.99847249497157 0  4.005359214260924 25.99954349848763 0  5.005293014817224 26.00061464011564 0  6.003854218110774 26.00043700770343 0  7.002515260072688 26.00028013207198 0  8.001241531867755 26.00013674471605 0  9 26 0  -9 28 0  -8.000618962723706 28.00019214261781 0  -7.001254772804833 28.00039230217757 0  -6.001924775142541 28.00060870179213 0  -5.002647078289501 28.00084998338928 0  -4.002681764253829 27.99957406701999 0  -3.002651618197572 27.99829783421047 0  -2.001694392306756 27.99837197581433 0  -1.000785781067111 27.99841412288791 0  9.871917900225085e-05 27.99842537699 0  1.00098299904938 27.99840603172461 0  2.001890931288246 27.99835557307782 0  3.002846966003761 27.9982726783898 0  4.002872729196649 27.99955078036149 0  5.002834327120479 28.00082893581184 0  6.002065904173627 28.00059329858625 0  7.001349174005749 28.00038221495073 0  8.000666251917778 28.0
[...]
<PointData  Scalars="f_44-1"> 
<DataArray  type="Float64"  Name="f_44-1"  format="ascii">1.5538504524580023e-03  8.4695711519915592e-05  6.7164166955490105e-05  1.9235474904630260e-04  -1.8335432997168112e-03  0.0000000000000000e+00  0.0000000000000000e+00  0.0000000000000000e+00  0.0000000000000000e+00  0.0000000000000000e+00  0.0000000000000000e+00  0.0000000000000000e+00  0.0000000000000000e+00  0.0000000000000000e+00  1.5699474682687011e-03  8.4297834439426650e-05  6.7740528622203545e-05  1.8927540802926606e-04  -1.8633752193944590e-03  8.5340118890512476e-02  8.5393428923207323e-02  8.5317713547385252e-02  8.5080169519590715e-02  8.4965751945458551e-02  0.0000000000000000e+00  0.0000000000000000e+00  0.0000000000000000e+00  0.0000000000000000e+00  0.0000000000000000e+00  0.0000000000000000e+00  0.0000000000000000e+00  0.0000000000000000e+00  0.0000000000000000e+00  8.5508029497447360e-02  8.5560659742913700e-02  8.5482556859799580e-02  8.5242473118707474e-02  8.5126493969991543e-02  1.7057481950310394e-01  1.7056630556555202e-01  1.7052366267358401e-01  1.7050141874275387e-01  1.7052274766305972e-01  0.0000000000000000e+00  0.0000000000000000e+00  0.0000000000000000e+00  0.0000000000000000e+00  0.0000000000000000e+00  0.0000000000000000e+00  0.0000000000000000e+00  0.0000000000000000e+00  0.0000000000000000e+00  1.7088811770546639e-01  1.7088802783926685e-01  1.7085327518674467e-01  1.7083680562158943e-01  1.7086419134189942e-01  2.5584468773483482e-01  2.5583824774230357e-01  2.5583189619193519e-01  2.5582585825757315e-01  2.5580675056091312e-01  0.0000000000000000e+00  0.0000000000000000e+00  0.0000000000000000e+00  0.0000000000000000e+00  0.0000000000000000e+00  0.0000000000000000e+00  0.0000000000000000e+00  0.0000000000000000e+00  0.0000000000000000e+00  2.5632851615581786e-01  2.5631804421258725e-01  2.5631734901260012e-01  2.5632043967739976e-01  2.5632046658146851e-01  3.4116094442108175e-01  3.4114876260947918e-01  3.4112423994317659e-01  3.4106388905634849e-01  3.4101750591994578e-01  0.0000000000000000e+00  0.0000000000000000e+00  0.0000000000000000e+00  0.0000000000000000e+00  0.0000000000000000e+00  0.0000000000000000e+00  0.0000000000000000e+00  0.0000000000000000e+00  0.0000000000000000e+00  3.4174086921082747e-01  3.4176419357312010e-01  3.4176956489370441e-01  3.4177724162053219e-01  3.4178291098598668e-01  4.2651958997435474e-01  4.2650384658807100e-01  4.2648438553001550e-01  4.2648192316031397e-01  4.2651675714881215e-01  0.0000000000000000e+00  1.2996265094122457e+00  1.2995371685531467e+00  1.2996791099030269e+00  1.2996866861485707e+00  1.2996904658534743e+00  1.2995817080970853e+00  1.2987904387053721e+00  0.0000000000000000e+00  4.2719840497745387e-01  4.2720251359514588e-01  4.2721302458471783e-01  4.2723540719417524e-01  4.2724809719872386e-01  5.1190966596547693e-01  5.1188591355985058e-01  5.1184295420984138e-01  5.1178592825466673e-01  5.1166201459248861e-01  0.0000000000000000e+00  1.2997011831233525e+00  1.2997347181950025e+00  1.2997494331148005e+00  1.2997313616092074e+00  1.2997299957209167e+00  1.2997126416102425e+00  1.2998747919987081e+00  0.0000000000000000e+00  5.1249551631197343e-01  5.1257783941552770e-01  5.1267105835838855e-01  5.1272472967091243e-01  5.1274699424889314e-01  5.9738799892394412e-01  5.9735692226951198e-01  5.9728486843526751e-01  5.9717108918378980e-01  5.9699677880968549e-01  0.0000000000000000e+00  1.3000718908319480e+00  1.2999224110537504e+00  1.2998126008931210e+00  1.2997744898230805e+00  1.2997843511993548e+00  1.2998376944162224e+00  1.2999296822734949e+00  0.0000000000000000e+00  5.9790202423685834e-01  5.9809779990951362e-01  5.9823929443826362e-01  5.9832448911305913e-01  5.9835575258224061e-01  6.8303596653540088e-01  6.8300055993583531e-01  6.8290495821511021e-01  6.8274732589157816e-01  6.8250789945870094e-01  0.0000000000000000e+00  1.2999928745115052e+00  1.2998073306696885e+00  1.2996909308406055e+00  1.2996444721631746e+00  1.2996638733531289e+00  1.2997491232194316e+00  1.2999171291434082e+00  0.0000000000000000e+00  6.8358095921558371e-01  6.8383719345282268e-01  6.8402225254744431e-01  6.8413078768453139e-01  6.8416631121485272e-01  7.6892428094814025e-01  7.6888853788276124e-01  7.6878155612597521e-01  7.6860134463159213e-01  7.6833316062851353e-01  0.0000000000000000e+00  1.2996662540673927e+00  1.2994354581192002e+00  1.2992928586580701e+00  1.2992380736929143e+00  1.2992689235226451e+00  1.2993851529849376e+00  1.2995984808766601e+00  0.0000000000000000e+00  7.6963482127428651e-01  7.6990569965359434e-01  7.7009757454844341e-01  7.7021069008973897e-01  7.7024540273251119e-01  8.5509311060656956e-01  8.5506093620193646e-01  8.5495607190853551e-01  8.5477724638671171e-01  8.5451410306309217e-01  0.0000000000000000e+00  1.2989486633563723e+00  1.2987009345312339e+00  1.2985523094578653e+00  1.2984970997600069e+00  1.2985341143346050e+00  1.2986643962625468e+00  1.2988951179783774e+00  0.0000000000000000e+00  8.5605041348646405e-01  8.5630625817862116e-01  8.5648422175592820e-01  8.5658852764095494e-01  8.5661833415829525e-01  9.4154607224272135e-01  9.4152063249436224e-01  9.4143002590377700e-01  9.4127369938064376e-01  9.4104499979154466e-01  0.0000000000000000e+00  1.2978227797965982e+00  1.2975839665506432e+00  1.2974435319143618e+00  1.2973920296761403e+00  1.2974295942268750e+00  1.2975581187963436e+00  1.2977807169477953e+00  0.0000000000000000e+00  9.4280810637170909e-01  9.4301980938441676e-01  9.4316402556315349e-01  9.4324821649893764e-01  9.4326996282386322e-01  1.0282525088007879e+00  1.0282359572459630e+00  1.0281691851041725e+00  1.0280521524644353e+00  1.0278815128774734e+00  0.0000000000000000e+00  1.2963038316647537e+00  1.2960980287798878e+00  1.2959792215649282e+00  1.2959356345254260e+00  1.2959684623899648e+00  1.2960801881064363e+00  1.2962698274965556e+00  0.0000000000000000e+00  1.0298462501391505e+00  1.0299914009910167e+00  1.0300868004591506e+00  1.0301422768493487e+00  1.0301538868280633e+00  1.1151536086585576e+00  1.1151469831812120e+00  1.1151104560062683e+00  1.1150442168756094e+00  1.1149479213561255e+00  0.0000000000000000e+00  1.2944485055796746e+00  1.2942959302969637e+00  1.2942099303069432e+00  1.2941777145721851e+00  1.2942013257512290e+00  1.2942836175666113e+00  1.2944198832208089e+00  0.0000000000000000e+00  1.1170747193884880e+00  1.1171387372059105e+00  1.1171760392583174e+00  1.1171976049421590e+00  1.1171982266899141e+00  1.2021705477544029e+00  1.2021737714593435e+00  1.2021704317261075e+00  1.2021606351727701e+00  1.2021466890281631e+00  0.0000000000000000e+00  1.2923480820304625e+00  1.2922631986316333e+00  1.2922177714323828e+00  1.2921992883153404e+00  1.2922104025212569e+00  1.2922541083633285e+00  1.2923225032447492e+00  0.0000000000000000e+00  1.2043854331714396e+00  1.2043622436022270e+00  1.2043382119532680e+00  1.2043242575222857e+00  1.2043142288492208e+00  1.2892137523682949e+00  1.2892257153821400e+00  1.2892549976843730e+00  1.2893013383531671e+00  1.2893692688479739e+00  0.0000000000000000e+00  1.2901182513350360e+00  1.2901086613360542e+00  1.2901075425541975e+00  1.2901038514707792e+00  1.2901005919256523e+00  1.2901006639393082e+00  1.2900936773116720e+00  0.0000000000000000e+00  1.2916628578699201e+00  1.2915550547884429e+00  1.2914725508421865e+00  1.2914250297027379e+00  1.2914057725426309e+00  1.3761924819676861e+00  1.3762111917544744e+00  1.3762692234395890e+00  1.3763657383426438e+00  1.3765069345625094e+00  0.0000000000000000e+00  1.2878876755039164e+00  1.2879535426362494e+00  1.2879961005580851e+00  1.2880068180722151e+00  1.2879887877103238e+00  1.2879445727376371e+00  1.2878621899749667e+00  0.0000000000000000e+00  1.3787950350390832e+00  1.3786134443291629e+00  1.3784810380073480e+00  1.3784052021051678e+00  1.3783790473548663e+00  1.4630240597370323e+00  1.4630468558280683e+00  1.4631268875802237e+00  1.4632626309822527e+00  1.4634612133878027e+00  0.0000000000000000e+00  1.2857855233325766e+00  1.2859195198141236e+00  1.2860007381707252e+00  1.2860240098867783e+00  1.2859922570893261e+00  1.2859074649968512e+00  1.2857571399110803e+00  0.0000000000000000e+00  1.4656839805553272e+00  1.4654467006689091e+00  1.4652779160986913e+00  1.4651818323259971e+00  1.4651517849090097e+00  1.5496421086543755e+00  1.5496659392669088e+00  1.5497589802645582e+00  1.5499190578175166e+00  1.5501532862483012e+00  0.0000000000000000e+00  1.2839288699463951e+00  1.2841166619985656e+00  1.2842274421618476e+00  1.2842600133347470e+00  1.2842168892569774e+00  1.2840992447216319e+00  1.2838953369668356e+00  0.0000000000000000e+00  1.5522550353489415e+00  1.5519859357682793e+00  1.5517981226818798e+00  1.5516919655769188e+00  1.5516614110128222e+00  1.6360032347554141e+00  1.6360249143416952e+00  1.6361206042539465e+00  1.6362876924658853e+00  1.6365319781615753e+00  0.0000000000000000e+00  1.2824107922088406e+00  1.2826320807968996e+00  1.2827598547787533e+00  1.2827972725332879e+00  1.2827462185569691e+00  1.2826068393175805e+00  1.2823695186807895e+00  0.0000000000000000e+00  1.6384645860918468e+00  1.6381912376774750e+00  1.6380040452650302e+00  1.6378991588349523e+00  1.6378715177037313e+00  1.7220911766950768e+00  1.7221080587924460e+00  1.7221960790195563e+00  1.7223523410334469e+00  1.7225797555070685e+00  0.0000000000000000e+00  1.2812901326686033e+00  1.2815201093670052e+00  1.2816499050626882e+00  1.2816869041060983e+00  1.2816321083655970e+00  1.2814843532906850e+00  1.2812377184283272e+00  0.0000000000000000e+00  1.7243055310361741e+00  1.7240566006759988e+00  1.7238900274697249e+00  1.7237976884153037e+00  1.7237759925118235e+00  1.8079185059550076e+00  1.8079281907036435e+00  1.8079985698125711e+00  1.8081271235718097e+00  1.8083123343274776e+00  0.0000000000000000e+00  1.2805823678419521e+00  1.2807954985635235e+00  1.2809115695368065e+00  1.2809425102964320e+00  1.2808880231420030e+00  1.2807460056287545e+00  1.2805159399573518e+00  0.0000000000000000e+00  1.8098101457259552e+00  1.8096121829239373e+00  1.8094837360985474e+00  1.8094136986355838e+00  1.8094000986966630e+00  1.8935244519382204e+00  1.8935273969285751e+00  1.8935752557654546e+00  1.8936663677372458e+00  1.8937906630138004e+00  0.0000000000000000e+00  1.2802615630365048e+00  1.2804298169539119e+00  1.2805151601435252e+00  1.2805347394142146e+00  1.2804885719610068e+00  1.2803725285350334e+00  1.2801873203546108e+00  0.0000000000000000e+00  1.8950515052871486e+00  1.8949207428861514e+00  1.8948438746962382e+00  1.8948025741869443e+00  1.8947978245048198e+00  1.9789653532459006e+00  1.9789608823402922e+00  1.9789816319573657e+00  1.9790363032808496e+00  1.9791051039419487e+00  0.0000000000000000e+00  1.2802492484399588e+00  1.2803413532831536e+00  1.2803950655670107e+00  1.2804050572028272e+00  1.2803667012863882e+00  1.2802564049144372e+00  1.2801071210658914e+00  0.0000000000000000e+00  1.9801132891951707e+00  1.9800757586683879e+00  1.9800527608387255e+00  1.9800419801849660e+00  1.9800449353678689e+00  2.0643138689907650e+00  2.0643058281835920e+00  2.0643073280524762e+00  2.0643124535811985e+00  2.0642666708221680e+00  0.0000000000000000e+00  1.2803048973632660e+00  1.2804678702414070e+00  1.2804512986927852e+00  1.2804502612256057e+00  1.2804320369338331e+00  1.2804459600309359e+00  1.2804772128743624e+00  0.0000000000000000e+00  2.0651933967956007e+00  2.0651773277332399e+00  2.0652054484003437e+00  2.0652191422068795e+00  2.0652268251955923e+00  2.1496463567938973e+00  2.1496366073733193e+00  2.1496175654731302e+00  2.1495664988139538e+00  2.1495118109842708e+00  0.0000000000000000e+00  1.2813882472717162e+00  1.2806003394003440e+00  1.2804943574489447e+00  1.2804984953657557e+00  1.2805055073327574e+00  1.2806446499944528e+00  1.2805563401792603e+00  0.0000000000000000e+00  2.1501909281394829e+00  2.1503292274305212e+00  2.1503861484118429e+00  2.1504124929420336e+00  2.1504206803840371e+00  2.2350173067018182e+00  2.2350135596731096e+00  2.2349948588379656e+00  2.2349678385544758e+00  2.2349547661158211e+00  0.0000000000000000e+00  0.0000000000000000e+00  0.0000000000000000e+00  0.0000000000000000e+00  0.0000000000000000e+00  0.0000000000000000e+00  0.0000000000000000e+00  0.0000000000000000e+00  0.0000000000000000e+00  2.2356303783324876e+00  2.2356395643504996e+00  2.2356479454186902e+00  2.2356632131312972e+00  2.2356700884548748e+00  2.3204504463316331e+00  2.3204236029579821e+00  2.3204193587896946e+00  2.3204144487205038e+00  2.3203855454590352e+00  0.0000000000000000e+00  0.0000000000000000e+00  0.0000000000000000e+00  0.0000000000000000e+00  0.0000000000000000e+00  0.0000000000000000e+00  0.0000000000000000e+00  0.0000000000000000e+00  0.0000000000000000e+00  2.3209815535310265e+00  2.3209453731531804e+00  2.3209496316971427e+00  2.3209598227689403e+00  2.3209535870313567e+00  2.4058039411427963e+00  2.4058446096048254e+00  2.4058617129899051e+00  2.4057999396310850e+00  2.4057867226195162e+00  0.0000000000000000e+00  0.0000000000000000e+00  0.0000000000000000e+00  0.0000000000000000e+00  0.0000000000000000e+00  0.0000000000000000e+00  0.0000000000000000e+00  0.0000000000000000e+00  0.0000000000000000e+00  2.4061793632054891e+00  2.4062137611308674e+00  2.4062275189983247e+00  2.4061667998596765e+00  2.4061568304063141e+00  2.4913671952897660e+00  2.4914913327804613e+00  2.4913693949318456e+00  2.4914492711935834e+00  2.4916779423694182e+00  0.0000000000000000e+00  0.0000000000000000e+00  0.0000000000000000e+00  0.0000000000000000e+00  0.0000000000000000e+00  0.0000000000000000e+00  0.0000000000000000e+00  0.0000000000000000e+00  0.0000000000000000e+00  2.4915756063552834e+00  2.4916829596287129e+00  2.4915569404736173e+00  2.4916305455348580e+00  2.4918487069534407e+00  2.5795547142304192e+00  2.5764773323641590e+00  2.5764599868050189e+00  2.5765833132502616e+00  2.5747955339402688e+00  0.0000000000000000e+00  0.0000000000000000e+00  0.0000000000000000e+00  0.0000000000000000e+00  0.0000000000000000e+00  0.0000000000000000e+00  0.0000000000000000e+00  0.0000000000000000e+00  0.0000000000000000e+00  2.5795037724099190e+00  2.5764820700901723e+00  2.5764621926546307e+00  2.5765823811225648e+00  2.5748236208874928e+00  </DataArray> 
</PointData> 
</Piece>
</UnstructuredGrid>
</VTKFile>