<?xml version="1.0"?>
<VTKFile type="UnstructuredGrid"  version="0.1"  >
<UnstructuredGrid>
<Piece  NumberOfPoints="589" NumberOfCells="1080">
<Points>
<DataArray  type="Float64"  NumberOfComponents="3"  format="ascii">-9 0 0  -8 0 0  -7 0 0  -6 0 0  -5 0 0  -4 0 0  -3 0 0  -2 0 0  -1 0 0  0 0 0  1 0 0  2 0 0  3 0 0  4 0 0  5 0 0  6 0 0  7 0 0  8 0 0  9 0 0  -9 2 0  -8.000006728249492 1.999989376133876 0  -7.000014131888587 1.999980104412075 0  -6.000023831097015 1.999973288151583 0  -5.000039555226651 1.999969427453521 0  -4.000022917533146 1.999976994936608 0  -3.000005837472132 1.999984412190954 0  -1.99999761394897 1.999991473824135 0  -0.9999964742705708 1.99999705161452 0  2.550406104244504e-07 1.999999462362291 0  0.9999967248404474 1.99999765941757 0  1.999996989132438 1.999992038051045 0  3.000003789456966 1.999985131688784 0  4.000018024309376 1.999977662592066 0  5.000038795343907 1.999974333599017 0  6.000023594208265 1.999975512856171 0  7.000014116098478 1.999981154200766 0  8.000006763372099 1.999989809620256 0  9 2 0  -9.000000000004983 4 0  -8.000010754808995 3.999973344344454 0  -7.000019081554529 3.999950387461244 0  -6.000023562447552 3.999934754318391 0  -5.000024502369261 3.999929903709587 0  -3.999999926365212 3.999933363529973 0  -2.999983515083201 3.999954580606611 0  -1.99997944610864 3.99998228674015 0  -0.9999860901140706 4.000004582921537 0  1.452404143515592e-06 4.000013468241266 0  0.9999887779431885 4.000006127114186 0  1.999981417011095 3.999986629303712 0  2.999984924952134 3.999960225439113 0  4.000001021474564 3.999933490419551 0  5.000025666679853 3.999923944524181 0  6.00002429614693 3.999933177856803 0  7.000019730453319 3.999950252881893 0  8.000011169010333 3.999973480202456 0  9 4 0  -9 6 0  -8.000024492792388 5.999942520764138 0  -7.000039414568506 5.999891378617807 0  -6.000037457629526 5.99985309334335 0  -5.000016513198919 5.999833930051947 0  -3.999968067789827 5.999865383253821 0  -2.999946102769578 5.999931492053661 0  -1.999954942411141 6.000000887298858 0  -0.9999768913141205 6.000039527626009 0  7.919570454544878e-07 6.000047169639773 0  0.9999806138110539 6.000034326770036 0  1.999965165738032 5.999998974527808 0  2.999959353901142 5.999939242138983 0  3.999971004501181 5.9998771273185 0  5.000013021104759 5.999845861227779 0  6.000037778685429 5.999859479055478 0  7.000041326828448 5.999894745809509 0  8.0000260034916 5.99994398414135 0  9 6 0  -9 8 0  -8.000076505022774 7.999886363886151 0  -7.000127256511628 7.999780958890647 0  -6.000127299083725 7.999694960959651 0  -5.000055248627548 7.999646782666296 0  -3.999961287782826 7.999792886634068 0  -2.999978255823129 7.999964769814718 0  -2.000013288548708 8.000048816140495 0  -1.000016299697475 8.000058740518238 0  4.540556985589379e-06 8.000061697721431 0  1.000019903409673 8.000070238017853 0  2.000012928580915 8.00003432981716 0  2.999971187860176 7.999973320685999 0  3.999956845118891 7.999822606824165 0  5.000050392280983 7.999652545503944 0  6.00013608685761 7.99969920808846 0  7.00013839502053 7.999783370516262 0  8.000083546422614 7.999887391686902 0  9 8 0  -9 10 0  -8.000231453695358 9.999797345166693 0  -7.000417850988875 9.999593008048194 0  -6.000505432105368 9.99938571041959 0  -5.000419299297444 9.999175135100479 0  -4.000270408432883 9.999646808637159 0  -3.000294119793609 10.00005259385611 0  -2.000233573037502 9.999983731339022 0  -1.000102862454711 9.999961628941897 0  -6.219947590881427e-06 9.999956213645181 0  1.000089944490649 9.999956506206805 0  2.00021850872834 9.99995346715782 0  3.000330910260383 10.00010165534051 0  4.000315831116607 9.999708244626206 0  5.000488404310922 9.999189157798742 0  6.000567768226485 9.999389071375969 0  7.000463980964311 9.999592635046596 0  8.000255808929055 9.999796498118322 0  9 10 0  -9 12 0  -8.00056626801906 11.99971518925959 0  -7.001103121649245 11.99941712487156 0  -6.001577282990289 11.99908996397449 0  -5.00194740790128 11.99871163221275 0  -4.001871139075837 11.9995712494137 0  -3.001939047107675 12.00042214549151 0  -2.001318782057241 12.00032128501313 0  -1.000630496479459 12.00026776935035 0  8.299017734956018e-05 12.00025935865434 0  1.00080231784288 12.00029801959036 0  2.001510776688615 12.00039441734968 0  3.002175203863261 12.00057504956144 0  4.002099403185252 11.99962861170182 0  5.00215043768011 11.99867418338426 0  6.001731198679281 11.99906464420621 0  7.001206677241602 11.99940089218944 0  8.000618356430369 11.99970716720521 0  9 12 0  -9 14 0  -8.001017997650608 13.99968619895608 0  -7.002037972022462 13.99935788927222 0  -6.003063243160006 13.99899928326229 0  -5.004100581446284 13.99859208314719 0  -4.004111220952161 13.99959580498894 0  -3.004116507786089 14.0006120904586 0  -2.002677477246132 14.0004697381831 0  -1.001259529106504 14.00039373722452 0  0.000149056727532821 14.0003744483596 0  1.001559325839246 14.00040887438957 0  2.002981334073731 14.00049884689406 0  3.004422669006582 14.00064919944216 0  4.004432551766079 13.99959150214361 0  5.004440653913622 13.99854009060354 0  6.003313876418459 13.99895768554686 0  7.002203466848494 13.9993294111142 0  8.001100356789854 13.99967180824038 0  9 14 0  -9 16 0  -8.001460808844223 15.99971534367504 0  -7.002949966913764 15.99942005219451 0  -6.004498245927741 15.99910330033139 0  -5.006141359417932 15.9987540510392 0  -4.006200214426049 15.99960778143226 0  -3.006143743254808 16.0004568316772 0  -2.003954487154194 16.00035361319178 0  -1.001852247701551 16.00029352547872 0  0.0002084818337861138 16.00027528574782 0  1.002270681760726 16.00029814441958 0  2.004377290471764 16.00036235949517 0  3.006573937666311 16.00046897896395 0  4.006636036799181 15.99956400277865 0  5.006582108518428 15.9986582003677 0  6.004827887974811 15.99903463155025 0  7.003169118224658 15.99937554259442 0  8.001570183275831 15.99969342892348 0  9 16 0  -9 18 0  -8.001789154374718 17.99978705525642 0  -7.003623565082876 17.99956816374957 0  -6.005550827981956 17.99933748032126 0  -5.007623196028448 17.99908938607783 0  -4.007712287627414 17.99960998564038 0  -3.007625546236337 18.00012974834312 0  -2.004886837528513 18.00006565342738 0  -1.002280500869331 18.00002663655319 0  0.0002620082449669185 18.00001243777974 0  1.002805922067097 18.0000226838064 0  2.005416382113989 18.00005692311197 0  3.008161629479772 18.0001144980841 0  4.008253079836505 17.99954337512243 0  5.008166307250558 17.99897371809035 0  6.005956428880888 17.99925394334402 0  7.003893121171982 17.99951394468723 0  8.001923678537903 17.9997603746761 0  9 18 0  -9 20 0  -8.00193548618012 19.99988253832337 0  -7.003923791599045 19.99976347123983 0  -6.006019753251626 19.99964136550863 0  -5.008282245235161 19.99951512585 0  -4.008384027492897 19.99960932355057 0  -3.008282673919979 19.99970259534615 0  -2.005293570173558 19.99967789324543 0  -1.002455266455359 19.99966100486792 0  0.0003098765230201042 19.99965233913658 0  1.003076703326704 19.99965176327346 0  2.005920047730823 19.99965862216986 0  3.008917529340441 19.99967169002219 0  4.009021331937745 19.99953302905913 0  5.008919238993988 19.99939533217415 0  6.00649489886639 19.99955423325426 0  7.004239325035785 19.99970667179075 0  8.00209288599147 19.9998545246005 0  8.999999999984778 19.99999999999532 0  -9 22 0  -8.001869621484754 21.99998442644788 0  -7.003791431260024 21.99997093320249 0  -6.005819266909143 21.99996179689726 0  -5.008010250180494 21.99995969160398 0  -4.00810991716971 21.99960459219404 0  -3.008010248284368 21.9992484648562 0  -2.005101051171032 21.99925905227223 0  -1.002339236502646 21.9992626732652 0  0.0003510303698386574 21.99926007295032 0  1.003043304356917 21.99925128312295 0  2.00581115438491 21.99923563579358 0  3.008730460675755 21.99921174986028 0  4.008830952752668 21.99952967217064 0  5.008728492978408 21.99984807693922 0  6.006354655575496 21.99988036237339 0  7.004146792354287 21.99991772137257 0  8.002046830682156 21.99995814369846 0  9 22 0  -9 24 0  -8.001594047636004 24.00007799762805 0  -7.003232946492735 24.00016097231665 0  -6.004962825903549 24.00025410529902 0  -5.006832292332464 24.00036300121606 0  -4.006918098345381 23.99959598821655 0  -3.006832981273089 23.99882802463161 0  -2.004322856859099 23.99886792520783 0  -1.001938787298602 23.99888908489496 0  0.0003842619021227971 23.99889242263607 0  1.002709597373107 23.9988780814648 0  2.005100551425067 23.99884543199269 0  3.007622238253797 23.99879306701247 0  4.007706842029347 23.99953150151327 0  5.007616380750811 24.00027013868206 0  6.005547022288522 24.00018616932587 0  7.003620572123554 24.00011649547809 0  8.001787304727047 24.00005600365628 0  9 24 0  -9 26 0  -8.001137971365184 26.00015168400836 0  -7.002308373216845 26.00031039514929 0  -6.00354454347964 26.00048337009722 0  -5.004881456882142 26.00067827993517 0  -4.004944413066561 25.99958403206649 0  -3.004883581036042 25.99848901101997 0  -2.003044169827896 25.99855141058357 0  -1.001295944735062 25.99858643492199 0  0.0004085120998179341 25.99859513563518 0  1.002115449383557 25.99857775282783 0  2.00387114542634 25.99853371581651 0  3.00572310447442 25.99846164147298 0  4.005782437531229 25.99953682045418 0  5.005713460975374 26.00061199268848 0  6.004164302283106 26.00043478609346 0  7.002719529132855 26.00027854379724 0  8.001342939477523 26.00013591938893 0  9 26 0  -9 28 0  -8.000550886228718 28.00019728780089 0  -7.001118388070469 28.00040278254554 0  -6.001719635488749 28.00062490536855 0  -5.002372542297086 28.00087251246307 0  -4.002406483168234 27.99956979211322 0  -3.002376342067781 27.99826659706191 0  -2.001404399240752 27.99834402376969 0  -1.000479685729584 27.99838870244396 0  0.0004230029468189731 27.99840180071035 0  1.001328268601025 27.99838365051252 0  2.002260739786612 27.99833374867189 0  3.003245702003743 27.99825075536837 0  4.003273716799242 27.99954442371107 0  5.003232926998095 28.00083799574393 0  6.002360503100498 28.00059956166205 0  7.001543534830237 28.00038614485144 0  8.
[...]
<PointData  Scalars="f_44-1"> 
<DataArray  type="Float64"  Name="f_44-1"  format="ascii">1.2086106570905174e-03  -3.0901811064777413e-06  4.2632774602178848e-05  -9.5621199303354864e-06  -8.2460818820487443e-04  0.0000000000000000e+00  0.0000000000000000e+00  0.0000000000000000e+00  0.0000000000000000e+00  0.0000000000000000e+00  0.0000000000000000e+00  0.0000000000000000e+00  0.0000000000000000e+00  0.0000000000000000e+00  1.2086718872691114e-03  2.1569729665077580e-06  4.7287478539275585e-05  -1.6546014340250050e-05  -8.2680575393224878e-04  7.6584945237366198e-02  7.6595280611116437e-02  7.6410896024248928e-02  7.6150121729100517e-02  7.6041064860386975e-02  0.0000000000000000e+00  0.0000000000000000e+00  0.0000000000000000e+00  0.0000000000000000e+00  0.0000000000000000e+00  0.0000000000000000e+00  0.0000000000000000e+00  0.0000000000000000e+00  0.0000000000000000e+00  7.6346727457853605e-02  7.6344669328104908e-02  7.6149978952248024e-02  7.5890512204945984e-02  7.5780778356629441e-02  1.5279462571829144e-01  1.5277106482299679e-01  1.5272383871083114e-01  1.5268306162321876e-01  1.5270641287754091e-01  0.0000000000000000e+00  0.0000000000000000e+00  0.0000000000000000e+00  0.0000000000000000e+00  0.0000000000000000e+00  0.0000000000000000e+00  0.0000000000000000e+00  0.0000000000000000e+00  0.0000000000000000e+00  1.5227214524503518e-01  1.5228389341044207e-01  1.5226360610307427e-01  1.5222274083288728e-01  1.5222977206500315e-01  2.2913314555987888e-01  2.2914073590229464e-01  2.2916450397011598e-01  2.2919566046533915e-01  2.2920090458658643e-01  0.0000000000000000e+00  0.0000000000000000e+00  0.0000000000000000e+00  0.0000000000000000e+00  0.0000000000000000e+00  0.0000000000000000e+00  0.0000000000000000e+00  0.0000000000000000e+00  0.0000000000000000e+00  2.2840193358759101e-01  2.2839647662452162e-01  2.2840516339124212e-01  2.2841479192898603e-01  2.2842300773861920e-01  3.0549816142132147e-01  3.0548454069199815e-01  3.0542187708865365e-01  3.0528856153323114e-01  3.0520692159914520e-01  0.0000000000000000e+00  0.0000000000000000e+00  0.0000000000000000e+00  0.0000000000000000e+00  0.0000000000000000e+00  0.0000000000000000e+00  0.0000000000000000e+00  0.0000000000000000e+00  0.0000000000000000e+00  3.0444161205058368e-01  3.0453891876372086e-01  3.0458412562636211e-01  3.0460843367079909e-01  3.0462259062574215e-01  3.8197508181159834e-01  3.8196534871445686e-01  3.8192899988916201e-01  3.8191321191244770e-01  3.8188353494434724e-01  0.0000000000000000e+00  1.2156200472979628e+00  1.2154898165246029e+00  1.2154226740367038e+00  1.2153453827530267e+00  1.2154357153744904e+00  1.2155847268304871e+00  1.2151993037757345e+00  0.0000000000000000e+00  3.8076965508109961e-01  3.8081428438077536e-01  3.8083122454877905e-01  3.8085725548539584e-01  3.8087230765769348e-01  4.5856289670406825e-01  4.5854750051195475e-01  4.5848072529562262e-01  4.5838200627878384e-01  4.5816656696617886e-01  0.0000000000000000e+00  1.2155066413357571e+00  1.2152732528977050e+00  1.2151347853952925e+00  1.2150874257640567e+00  1.2151586632015605e+00  1.2152911241052704e+00  1.2156471907756594e+00  0.0000000000000000e+00  4.5686719330007652e-01  4.5702051094753809e-01  4.5713161469287961e-01  4.5718931074148911e-01  4.5721011449255117e-01  5.3537200228348780e-01  5.3534653201021087e-01  5.3522265726121365e-01  5.3500980392573605e-01  5.3464883924166617e-01  0.0000000000000000e+00  1.2150911007758749e+00  1.2146992065311588e+00  1.2144498264124954e+00  1.2143783714699958e+00  1.2144699691566219e+00  1.2147244196685214e+00  1.2151259344093543e+00  0.0000000000000000e+00  5.3300109675331730e-01  5.3336528130730498e-01  5.3358899191208031e-01  5.3372385155024271e-01  5.3375804352488143e-01  6.1259118129987422e-01  6.1255297623799121e-01  6.1235837438702745e-01  6.1200806334259172e-01  6.1145265366841506e-01  0.0000000000000000e+00  1.2140133646477895e+00  1.2134433059217340e+00  1.2131100035671696e+00  1.2130094105635840e+00  1.2131356421185273e+00  1.2134910215480978e+00  1.2141021337857474e+00  0.0000000000000000e+00  6.0948205852459614e-01  6.1007382304860258e-01  6.1046088784485386e-01  6.1067752317073898e-01  6.1072695801235566e-01  6.9043816055153240e-01  6.9038838257043866e-01  6.9013076678224228e-01  6.8966120612954973e-01  6.8894820346761865e-01  0.0000000000000000e+00  1.2119861321810574e+00  1.2112742732079416e+00  1.2108570953569719e+00  1.2107278050629042e+00  1.2108814990442838e+00  1.2113210848920990e+00  1.2120657508026227e+00  0.0000000000000000e+00  6.8675335456199416e-01  6.8750900845213792e-01  6.8801481687172183e-01  6.8829716858085865e-01  6.8835813838549953e-01  7.6909943293799432e-01  7.6904245634794333e-01  7.6874550892067073e-01  7.6820313956898034e-01  7.6740505811331694e-01  0.0000000000000000e+00  1.2087061677815643e+00  1.2079257910051875e+00  1.2074728663128329e+00  1.2073328592525034e+00  1.2075001273000328e+00  1.2079795666174997e+00  1.2087884932698292e+00  0.0000000000000000e+00  7.6504364749832121e-01  7.6588983822722834e-01  7.6646491558125229e-01  7.6678443209946601e-01  7.6685136313840652e-01  8.4868516189801324e-01  8.4862704229311781e-01  8.4832257526033961e-01  8.4776703608393034e-01  8.4697147080425184e-01  0.0000000000000000e+00  1.2040641638326690e+00  1.2033008789939277e+00  1.2028609824263352e+00  1.2027251875458029e+00  1.2028894435694868e+00  1.2033597806284011e+00  1.2041488846736670e+00  0.0000000000000000e+00  8.4450331056668304e-01  8.4534873345806572e-01  8.4593150558878971e-01  8.4625443583628901e-01  8.4632129959260138e-01  9.2920576790646392e-01  9.2915300157060743e-01  9.2887489744456775e-01  9.2836866950578245e-01  9.2766487394972219e-01  0.0000000000000000e+00  1.1980874051712738e+00  1.1974265935343220e+00  1.1970493644844571e+00  1.1969343789433897e+00  1.1970793810027553e+00  1.1974906042026678e+00  1.1981745860345772e+00  0.0000000000000000e+00  9.2514703078589156e-01  9.2589955772625165e-01  9.2642622323454638e-01  9.2671758201732712e-01  9.2677787458031935e-01  1.0105668842414950e+00  1.0105254258272347e+00  1.0103048000272699e+00  1.0099048089211957e+00  1.0093720522447696e+00  0.0000000000000000e+00  1.1909538930635781e+00  1.1904698558699085e+00  1.1901982842208099e+00  1.1901182686500489e+00  1.1902295625408374e+00  1.1905379612069229e+00  1.1910432149434544e+00  0.0000000000000000e+00  1.0068557951576773e+00  1.0074341657415327e+00  1.0078476835778314e+00  1.0080760460313722e+00  1.0081238230608465e+00  1.0925792693750189e+00  1.0925537524598756e+00  1.0924151383796401e+00  1.0921660148117951e+00  1.0918642734996873e+00  0.0000000000000000e+00  1.1829694593075650e+00  1.1827166554516495e+00  1.1825819180423969e+00  1.1825470999594492e+00  1.1826139540426437e+00  1.1827872727195994e+00  1.1830599593741997e+00  0.0000000000000000e+00  1.0893941161992442e+00  1.0897369325440340e+00  1.0899932666984635e+00  1.0901344754473801e+00  1.0901652190631730e+00  1.1749802965488780e+00  1.1749735173775169e+00  1.1749321641106960e+00  1.1748614773648425e+00  1.1748249574636789e+00  0.0000000000000000e+00  1.1745332824706876e+00  1.1745405255159416e+00  1.1745586506427064e+00  1.1745742294675299e+00  1.1745907971177862e+00  1.1746117056198755e+00  1.1746236479733678e+00  0.0000000000000000e+00  1.1724377338205818e+00  1.1725098719383809e+00  1.1725826180734069e+00  1.1726223171828323e+00  1.1726334794768918e+00  1.2574636568639033e+00  1.2574762419845675e+00  1.2575365263500695e+00  1.2576520288980766e+00  1.2578856883858744e+00  0.0000000000000000e+00  1.1660940405273577e+00  1.1663616078901982e+00  1.1665318369228004e+00  1.1665974534602057e+00  1.1665633960676731e+00  1.1664312747861696e+00  1.1661828613780767e+00  0.0000000000000000e+00  1.2556103321064085e+00  1.2554063170303589e+00  1.2552892179805295e+00  1.2552242224907533e+00  1.2552154760747907e+00  1.3397130887108217e+00  1.3397435838127585e+00  1.3398987310290302e+00  1.3401878201579300e+00  1.3406669655902226e+00  0.0000000000000000e+00  1.1581010186341019e+00  1.1586007308768544e+00  1.1589056637975292e+00  1.1590154761314624e+00  1.1589360049229389e+00  1.1586669605357531e+00  1.1581870682309359e+00  0.0000000000000000e+00  1.3385247082883409e+00  1.3380689825830909e+00  1.3377763365974176e+00  1.3376148089483004e+00  1.3375880204452248e+00  1.4214382443274578e+00  1.4214830522671238e+00  1.4217157697241802e+00  1.4221465927252559e+00  1.4228193252549792e+00  0.0000000000000000e+00  1.1509550146274461e+00  1.1516332592510368e+00  1.1520407389021492e+00  1.1521840718178518e+00  1.1520693996516738e+00  1.1516945359489676e+00  1.1510375195399793e+00  0.0000000000000000e+00  1.4208242813230285e+00  1.4201685820378604e+00  1.4197335617434088e+00  1.4194939538259528e+00  1.4194529121724881e+00  1.5024030537849753e+00  1.5024575226916415e+00  1.5027421583234906e+00  1.5032677530798886e+00  1.5040607979692233e+00  0.0000000000000000e+00  1.1449638896079897e+00  1.1457475232541310e+00  1.1462141310996103e+00  1.1463766477231090e+00  1.1462408880388215e+00  1.1458029571263950e+00  1.1450428275990574e+00  0.0000000000000000e+00  1.5022218965039884e+00  1.5014393698035953e+00  1.5009099151421810e+00  1.5006189111932975e+00  1.5005688386194800e+00  1.5824595864573161e+00  1.5825168141052253e+00  1.5828214630544797e+00  1.5833845840149638e+00  1.5842124407427098e+00  0.0000000000000000e+00  1.1403079362746267e+00  1.1411122504672451e+00  1.1415883943810403e+00  1.1417540135058850e+00  1.1416137141693110e+00  1.1411620203366801e+00  1.1403837872734572e+00  0.0000000000000000e+00  1.5825312324414282e+00  1.5817061553968459e+00  1.5811406257536318e+00  1.5808298689999225e+00  1.5807767669235595e+00  1.6615446700800756e+00  1.6615997883091560e+00  1.6618952402290379e+00  1.6624389858547266e+00  1.6632123749711445e+00  0.0000000000000000e+00  1.1370169956327136e+00  1.1377583772250213e+00  1.1381954985894418e+00  1.1383477799655681e+00  1.1382178621133905e+00  1.1378009692264215e+00  1.1370900411882832e+00  0.0000000000000000e+00  1.6616770782985171e+00  1.6609069792246729e+00  1.6603637046280331e+00  1.6600654439911584e+00  1.6600150032138170e+00  1.7397170622192735e+00  1.7397671543151589e+00  1.7400173152503637e+00  1.7404690810720087e+00  1.7410956357390008e+00  0.0000000000000000e+00  1.1349710004022484e+00  1.1355803358645631e+00  1.1359342624838917e+00  1.1360594289055055e+00  1.1359579953904306e+00  1.1356239273221831e+00  1.1350534072599727e+00  0.0000000000000000e+00  1.7397655940376249e+00  1.7390905007202058e+00  1.7386218561801037e+00  1.7383649069547733e+00  1.7383224665367769e+00  1.8170879561571116e+00  1.8171210593804970e+00  1.8173136443865905e+00  1.8177010076757349e+00  1.8182108445460052e+00  0.0000000000000000e+00  1.1339424368922086e+00  1.1343433190057319e+00  1.1345972446337460e+00  1.1346880980939154e+00  1.1346155506424012e+00  1.1343643192302095e+00  1.1339711806738915e+00  0.0000000000000000e+00  1.8168255597679608e+00  1.8163976667807740e+00  1.8160526964383572e+00  1.8158598594506603e+00  1.8158274330108255e+00  1.8938501537295733e+00  1.8938830185945841e+00  1.8940288548546700e+00  1.8942742312433414e+00  1.8945129350448839e+00  0.0000000000000000e+00  1.1334202729584857e+00  1.1337774064564639e+00  1.1339095641385817e+00  1.1339801539035064e+00  1.1339320362584882e+00  1.1337927705453261e+00  1.1335582095451064e+00  0.0000000000000000e+00  1.8934819727324268e+00  1.8931048486623157e+00  1.8928692883713765e+00  1.8927432869040086e+00  1.8927254779463663e+00  1.9702512960180312e+00  1.9702499581528845e+00  1.9703026017719099e+00  1.9703499526890935e+00  1.9704493365003763e+00  0.0000000000000000e+00  1.1338757161622897e+00  1.1334868509835272e+00  1.1336344535284981e+00  1.1337238912663050e+00  1.1336470354649948e+00  1.1335809321396422e+00  1.1334506638127604e+00  0.0000000000000000e+00  1.9693236597753754e+00  1.9693248743734058e+00  1.9692840734507853e+00  1.9692504198290026e+00  1.9692378768589252e+00  2.0463481604171725e+00  2.0463852250381547e+00  2.0463992223704608e+00  2.0464321608433593e+00  2.0465077378650718e+00  0.0000000000000000e+00  0.0000000000000000e+00  0.0000000000000000e+00  0.0000000000000000e+00  0.0000000000000000e+00  0.0000000000000000e+00  0.0000000000000000e+00  0.0000000000000000e+00  0.0000000000000000e+00  2.0455140864212003e+00  2.0455576846140460e+00  2.0455670073035765e+00  2.0455824697310567e+00  2.0456151757736278e+00  2.1227360398279163e+00  2.1227084253992570e+00  2.1227207568586466e+00  2.1227393697649948e+00  2.1227055619919897e+00  0.0000000000000000e+00  0.0000000000000000e+00  0.0000000000000000e+00  0.0000000000000000e+00  0.0000000000000000e+00  0.0000000000000000e+00  0.0000000000000000e+00  0.0000000000000000e+00  0.0000000000000000e+00  2.1221360041682273e+00  2.1220983995093672e+00  2.1221142750428239e+00  2.1221373857112900e+00  2.1221109964409406e+00  2.1984321049931608e+00  2.1983650656491536e+00  2.1983893530507608e+00  2.1983535398902436e+00  2.1982690749560607e+00  0.0000000000000000e+00  0.0000000000000000e+00  0.0000000000000000e+00  0.0000000000000000e+00  0.0000000000000000e+00  0.0000000000000000e+00  0.0000000000000000e+00  0.0000000000000000e+00  0.0000000000000000e+00  2.1980275107705167e+00  2.1979736484214558e+00  2.1980001513349641e+00  2.1979694307298452e+00  2.1978945547150999e+00  2.2741628174443065e+00  2.2749437157125549e+00  2.2753850020233282e+00  2.2757695043410924e+00  2.2764711148717249e+00  0.0000000000000000e+00  0.0000000000000000e+00  0.0000000000000000e+00  0.0000000000000000e+00  0.0000000000000000e+00  0.0000000000000000e+00  0.0000000000000000e+00  0.0000000000000000e+00  0.0000000000000000e+00  2.2740342996381187e+00  2.2747743963690463e+00  2.2751911096931416e+00  2.2755539170454226e+00  2.2762281184817099e+00  2.3545478008480312e+00  2.3511064434098738e+00  2.3503125496508233e+00  2.3509510584630040e+00  2.3490438392283770e+00  0.0000000000000000e+00  0.0000000000000000e+00  0.0000000000000000e+00  0.0000000000000000e+00  0.0000000000000000e+00  0.0000000000000000e+00  0.0000000000000000e+00  0.0000000000000000e+00  0.0000000000000000e+00  2.3545344026686341e+00  2.3511113379331343e+00  2.3503171935532068e+00  2.3509512325210751e+00  2.3490581016010146e+00  </DataArray> 
</PointData> 
</Piece>
</UnstructuredGrid>
</VTKFile>