<?xml version="1.0"?>
<VTKFile type="UnstructuredGrid"  version="0.1"  >
<UnstructuredGrid>
<Piece  NumberOfPoints="589" NumberOfCells="1080">
<Points>
<DataArray  type="Float64"  NumberOfComponents="3"  format="ascii">-9 0 0  -8 0 0  -7 0 0  -6 0 0  -5 0 0  -4 0 0  -3 0 0  -2 0 0  -1 0 0  0 0 0  1 0 0  2 0 0  3 0 0  4 0 0  5 0 0  6 0 0  7 0 0  8 0 0  9 0 0  -9 2 0  -8.000000014597852 1.999999989090502 0  -7.000000031591645 1.999999978030049 0  -6.000000054367773 1.999999966487973 0  -5.000000088786685 1.999999953655615 0  -4.000000069871189 1.999999968919183 0  -3.000000046214575 1.99999997569628 0  -2.000000029100127 1.999999978659911 0  -1.000000014795184 1.999999980761292 0  -2.135214129675673e-09 1.999999981561325 0  1.000000010343593 1.999999981079789 0  2.000000023962907 1.999999979293275 0  3.000000039990876 1.99999997626353 0  4.000000059539678 1.999999971032489 0  5.000000084447942 1.99999996388023 0  6.000000051725182 1.999999971579487 0  7.000000030053925 1.999999980539767 0  8.000000013885607 1.999999990134352 0  9 2 0  -9 4 0  -8.000000019611928 3.999999978784817 0  -7.000000040053945 3.999999957986596 0  -6.000000062164412 3.999999938137077 0  -5.000000086539107 3.999999920059914 0  -4.000000067914232 3.999999921627507 0  -3.0000000496939 3.999999928117524 0  -2.000000032600877 3.999999937138396 0  -1.000000016584534 3.999999943552586 0  -1.769437555341087e-09 3.99999994615283 0  1.000000012925486 3.999999944622473 0  2.000000028673955 3.999999939448027 0  3.000000046417966 3.999999931715271 0  4.000000065612919 3.9999999233568 0  5.000000082880292 3.999999917532787 0  6.00000005924435 3.999999938114884 0  7.000000038096094 3.999999958542313 0  8.000000018640362 3.999999979184456 0  9 4 0  -9 6 0  -8.000000021305642 5.999999966811291 0  -7.000000041842457 5.999999934148327 0  -6.000000060904127 5.999999902696757 0  -5.000000078097012 5.999999873444502 0  -4.000000056988567 5.999999876928501 0  -3.000000039677125 5.999999889176181 0  -2.000000025975342 5.99999990272494 0  -1.00000001426132 5.999999911080391 0  -2.768498439496856e-09 5.999999913683739 0  1.000000009333623 5.999999910802827 0  2.000000022576951 5.999999903381863 0  3.000000036534717 5.999999892098664 0  4.000000051999239 5.999999880921851 0  5.000000071717141 5.9999998776575 0  6.000000056812769 5.999999905268958 0  7.000000039368171 5.999999935686007 0  8.000000020133639 5.999999967540958 0  9 6 0  -9 8 0  -8.000000026074664 7.999999952734799 0  -7.000000049531539 7.999999905464475 0  -6.000000067118987 7.999999858459175 0  -5.000000074193009 7.999999812727612 0  -4.000000050928833 7.999999833636386 0  -3.000000039045132 7.999999859999957 0  -2.000000030748093 7.999999875763953 0  -1.000000018371239 7.999999881794579 0  -3.536325860049514e-09 7.999999883795342 0  1.000000011163013 7.999999883051632 0  2.000000021541913 7.999999876012044 0  3.000000029218984 7.999999861352484 0  4.000000044346002 7.999999838707256 0  5.000000071171928 7.999999817008365 0  6.000000064542082 7.999999861200669 0  7.000000047799979 7.999999907078085 0  8.000000025223345 7.999999953481105 0  9 8 0  -9 10 0  -8.000000041314863 9.999999938678817 0  -7.000000080698322 9.999999875720516 0  -6.000000115387545 9.999999809126646 0  -5.000000140576036 9.999999736017793 0  -4.000000116746312 9.999999782616142 0  -3.000000096112263 9.999999827207906 0  -2.000000065067303 9.999999834934027 0  -1.000000033847669 9.999999837107064 0  -5.528340224428985e-09 9.999999837750526 0  1.000000022805212 9.999999836557826 0  2.000000053493014 9.999999832498736 0  3.000000092990966 9.999999831112541 0  4.000000111938482 9.999999786979565 0  5.000000134373329 9.999999738516037 0  6.000000112720427 9.999999810391939 0  7.000000079569912 9.999999876367752 0  8.000000040899895 9.999999938957753 0  9 10 0  -9 12 0  -8.000000064280673 11.99999993117128 0  -7.00000013064204 11.99999986051884 0  -6.000000201659016 11.99999978585404 0  -5.000000281172484 11.99999970414806 0  -4.000000278030619 11.99999975246296 0  -3.00000027163591 11.99999980030286 0  -2.00000017034392 11.99999979734403 0  -1.000000082467487 11.9999997963276 0  -6.171100866868368e-10 11.99999979634513 0  1.000000082012439 11.99999979736302 0  2.000000172514607 11.99999980039489 0  3.000000279442337 11.99999980831155 0  4.000000290423346 11.99999975303508 0  5.000000290866133 11.9999996988433 0  6.00000020688921 11.99999978318359 0  7.00000013341786 11.99999985920066 0  8.000000065495943 11.99999993062542 0  9 12 0  -9 14 0  -8.000000078923707 13.99999993095866 0  -7.00000016196332 13.99999986136661 0  -6.000000253944516 13.9999997907462 0  -5.000000361272191 13.99999971884752 0  -4.000000365381573 13.99999973537818 0  -3.000000351666997 13.99999975362344 0  -2.000000221958319 13.99999975198448 0  -1.000000106983082 13.99999975141229 0  1.177431745878387e-09 13.99999975093831 0  1.000000109729191 13.99999975011226 0  2.000000225833962 13.99999974875187 0  3.000000357187022 13.99999974666653 0  4.000000371614637 13.99999973108154 0  5.000000368804118 13.99999971702734 0  6.000000259035689 13.99999978926811 0  7.000000165068079 13.99999986040284 0  8.00000008038808 13.99999993049381 0  9 14 0  -9 16 0  -8.000000077103085 15.99999993294886 0  -7.000000157518287 15.99999986632786 0  -6.000000244844075 15.99999980075141 0  -5.000000343230933 15.99999973724762 0  -4.000000345880999 15.99999971633035 0  -3.000000334966 15.99999969502133 0  -2.000000214638961 15.9999997023578 0  -1.000000104239788 15.99999970610419 0  1.406990568570526e-09 15.99999970693973 0  1.000000107233905 15.99999970499889 0  2.000000218160163 15.99999970000866 0  3.00000033933137 15.99999969124134 0  4.000000350161373 15.99999971332093 0  5.000000347476475 15.99999973557657 0  6.000000247978893 15.99999979977681 0  7.000000159567843 15.99999986578009 0  8.00000007811253 15.99999993270127 0  9 16 0  -9 18 0  -8.000000062033994 17.99999993321851 0  -7.000000125430916 17.99999986711092 0  -6.000000191499351 17.99999980246597 0  -5.00000026138858 17.99999974030498 0  -4.000000261239699 17.99999969865773 0  -3.000000256050061 17.99999965746333 0  -2.000000167608141 17.9999996670914 0  -1.000000082486918 17.9999996724395 0  9.160051811532612e-10 17.99999967404669 0  1.000000084341248 17.99999967208308 0  2.000000169506574 17.99999966637379 0  3.000000257941147 17.99999965638783 0  4.00000026270434 17.99999969859493 0  5.000000262497153 17.99999974122779 0  6.000000192575949 17.9999998030733 0  7.000000126244673 17.99999986748577 0  8.000000062465848 17.99999993339849 0  9 18 0  -9 20 0  -8.000000041513188 19.99999993079261 0  -7.000000082657505 19.99999986204342 0  -6.000000122871436 19.99999979424471 0  -5.000000161172864 19.99999972794856 0  -4.000000159058701 19.99999968413306 0  -3.000000158854292 19.99999964080057 0  -2.000000107294533 19.99999964894494 0  -1.000000053860849 19.99999965373846 0  3.357416353079413e-10 19.9999996554368 0  1.000000054488256 19.99999965415001 0  2.000000107776001 19.99999964984556 0  3.000000159047411 19.99999964236211 0  4.000000158868789 19.99999968638803 0  5.000000160824451 19.99999973070808 0  6.000000122813294 19.99999979610195 0  7.000000082711717 19.99999986319041 0  8.000000041567233 19.99999993134061 0  9 20 0  -9 22 0  -8.000000022467855 21.99999992653387 0  -7.000000043605646 21.99999985317401 0  -6.000000061893538 21.99999978001322 0  -5.000000075417161 21.99999970710927 0  -4.000000073076569 21.99999967286822 0  -3.000000076284549 21.99999963910496 0  -2.000000054476621 21.99999964420189 0  -1.000000028286407 21.99999964741809 0  -6.821976725356341e-11 21.99999964876745 0  1.000000028094349 21.99999964828757 0  2.000000054110764 21.99999964603335 0  3.00000007560626 21.99999964209309 0  4.000000072252246 21.99999967614654 0  5.000000074588132 21.99999971047647 0  6.000000061412309 21.99999978235222 0  7.000000043350401 21.99999985464803 0  8.000000022359618 21.99999992724603 0  9 22 0  -9 24 0  -8.000000008742761 23.99999992185005 0  -7.000000015953401 23.99999984350829 0  -6.000000019972711 23.99999976475439 0  -5.000000018887197 23.99999968530624 0  -4.000000017844897 23.99999966481071 0  -3.000000022924019 23.99999964476677 0  -2.000000019187855 23.99999964698168 0  -1.000000010823857 23.99999964856518 0  -2.497073692943465e-10 23.999999649415 0  1.000000010285055 23.99999964952256 0  2.000000018529205 23.99999964896524 0  3.000000022060547 23.99999964791559 0  4.000000017058799 23.99999966798089 0  5.000000018252757 23.99999968835482 0  6.000000019555673 23.99999976692221 0  7.000000015704593 23.999999844897 0  8.000000008627334 23.99999992252749 0  9 24 0  -9 26 0  -8.00000000114616 25.99999991793357 0  -7.000000001066479 25.99999983549107 0  -5.999999998471192 25.99999975227257 0  -4.99999999194878 25.99999966782924 0  -3.99999999312656 25.9999996597392 0  -2.999999999086106 25.99999965206715 0  -2.000000002410425 25.99999965228717 0  -1.000000002201918 25.99999965264692 0  -2.736440782421607e-10 25.99999965303159 0  1.000000001638211 25.99999965341714 0  2.000000001798879 25.9999996538664 0  2.999999998399972 25.99999965453102 0  3.999999992674903 25.9999996621077 0  4.999999991742346 25.99999967002299 0  5.999999998315017 25.99999975386264 0  7.000000000963502 25.99999983652311 0  8.000000001095357 25.99999991844088 0  9 26 0  -9 28 0  -7.99999999845292 27.99999991552133 0  -6.999999996241991 27.99999983057786 0  -5.999999992678168 27.99999974469007 0  -4.999999987026885 27.99999965735047 0  -3.999999990832595 27.99999965745152 0  -2.999999997198353 27.99999965794707 0  -1.999999999764299 27.99999965703377 0  -1.000000000459048 27.99999965662898 0  -2.319056142627913e-10 27.99999965664468 0  0.9999999999961174 27.99999965705684 0  1.999999999306852 27.99999965790611 0  2.999999996759824 27.99999965929523 0  3.999999990712637 27.99999965870924 0  4.999999987197591 27.99999965848385 0  5.999999992771109 27.99999974551979 0  6.999999996288937 27.99999983112003 0  7.999999998472225 27.99999991578888 0  9 2
[...]
<PointData  Scalars="f_44-1"> 
<DataArray  type="Float64"  Name="f_44-1"  format="ascii">9.2146876791436084e-06  1.4209493360868283e-06  5.6130102829223997e-07  7.5664468334473899e-07  -8.8594858254918045e-06  0.0000000000000000e+00  0.0000000000000000e+00  0.0000000000000000e+00  0.0000000000000000e+00  0.0000000000000000e+00  0.0000000000000000e+00  0.0000000000000000e+00  0.0000000000000000e+00  0.0000000000000000e+00  1.0217247510721597e-05  1.5510411215829857e-06  6.7903421017657470e-07  8.2803094134504698e-07  -1.0120203831176985e-05  3.7910297729438049e-04  3.7954047329655135e-04  3.7978204327333598e-04  3.7986028221467420e-04  3.8068692237518256e-04  0.0000000000000000e+00  0.0000000000000000e+00  0.0000000000000000e+00  0.0000000000000000e+00  0.0000000000000000e+00  0.0000000000000000e+00  0.0000000000000000e+00  0.0000000000000000e+00  0.0000000000000000e+00  3.8243069325518336e-04  3.8096903649919168e-04  3.7954803485092001e-04  3.7786547078724178e-04  3.7667289444249272e-04  7.5667575222224343e-04  7.5694259031168422e-04  7.5757166888691240e-04  7.5893095834073782e-04  7.6122809935821368e-04  0.0000000000000000e+00  0.0000000000000000e+00  0.0000000000000000e+00  0.0000000000000000e+00  0.0000000000000000e+00  0.0000000000000000e+00  0.0000000000000000e+00  0.0000000000000000e+00  0.0000000000000000e+00  7.6042974774234685e-04  7.5859878521363205e-04  7.5710069775999553e-04  7.5624279976000796e-04  7.5624321118631169e-04  1.1319299958902794e-03  1.1321831471858661e-03  1.1331918117256173e-03  1.1348775650492152e-03  1.1371068775511692e-03  0.0000000000000000e+00  0.0000000000000000e+00  0.0000000000000000e+00  0.0000000000000000e+00  0.0000000000000000e+00  0.0000000000000000e+00  0.0000000000000000e+00  0.0000000000000000e+00  0.0000000000000000e+00  1.1364440430719765e-03  1.1344403086100442e-03  1.1328475851865977e-03  1.1318488389049717e-03  1.1316211008581348e-03  1.5038541489583780e-03  1.5042829147828450e-03  1.5059774925539513e-03  1.5086806980289323e-03  1.5121022912048473e-03  0.0000000000000000e+00  0.0000000000000000e+00  0.0000000000000000e+00  0.0000000000000000e+00  0.0000000000000000e+00  0.0000000000000000e+00  0.0000000000000000e+00  0.0000000000000000e+00  0.0000000000000000e+00  1.5115715030496100e-03  1.5087079369853313e-03  1.5061046846950067e-03  1.5043637875614517e-03  1.5039203137341452e-03  1.8700520138265906e-03  1.8709329319942516e-03  1.8743662824187021e-03  1.8800868702348933e-03  1.8877331769136512e-03  0.0000000000000000e+00  3.0271681594033731e-03  3.0355046899390443e-03  3.0426743198936272e-03  3.0453478121517511e-03  3.0426637452171889e-03  3.0354095684532408e-03  3.0246722536602551e-03  0.0000000000000000e+00  1.8890946450946047e-03  1.8813503876535544e-03  1.8753881403595978e-03  1.8717005908345185e-03  1.8707556574131664e-03  2.2252412175584229e-03  2.2268574268992799e-03  2.2331252031244598e-03  2.2441091116410269e-03  2.2600683270437663e-03  0.0000000000000000e+00  3.0363727803095868e-03  3.0516680866077774e-03  3.0610341697671810e-03  3.0640684025857426e-03  3.0608056746670698e-03  3.0514760735142242e-03  3.0364183796500548e-03  0.0000000000000000e+00  2.2630854352289021e-03  2.2466292102898194e-03  2.2351050058029942e-03  2.2284192538110847e-03  2.2266991059147851e-03  2.5617198884858956e-03  2.5640409697490710e-03  2.5730148221779821e-03  2.5890160243151206e-03  2.6129411555329573e-03  0.0000000000000000e+00  3.0682446516435450e-03  3.0909130231926252e-03  3.1041599046312783e-03  3.1084578647627243e-03  3.1040030067939883e-03  3.0906285850394260e-03  3.0675458589232087e-03  0.0000000000000000e+00  2.6166028911556792e-03  2.5921342766493096e-03  2.5755650098809699e-03  2.5662007779634491e-03  2.5637823567962697e-03  2.8724444848499606e-03  2.8750937605882716e-03  2.8853147972523678e-03  2.9034886940774193e-03  2.9305489944101352e-03  0.0000000000000000e+00  3.1417468232694066e-03  3.1675478924193157e-03  3.1824822157262458e-03  3.1872962062146643e-03  3.1822169597530633e-03  3.1669990411176433e-03  3.1408058012613407e-03  0.0000000000000000e+00  2.9335934537673522e-03  2.9062250169418777e-03  2.8877940088357736e-03  2.8774148476217553e-03  2.8747250530418151e-03  3.1542809380476289e-03  3.1567776028567770e-03  3.1664015407111374e-03  3.1833347077730814e-03  3.2081866638646716e-03  0.0000000000000000e+00  3.2631680977112283e-03  3.2868327223659981e-03  3.3005320784402527e-03  3.3049248417983319e-03  3.3001582029880171e-03  3.2860589453262879e-03  3.2621151218185005e-03  0.0000000000000000e+00  3.2102037421239287e-03  3.1852573509354321e-03  3.1683877009189695e-03  3.1588586525216561e-03  3.1563836638235699e-03  3.4090178867810465e-03  3.4110002489334029e-03  3.4186440501170865e-03  3.4318840460711778e-03  3.4508977737609308e-03  0.0000000000000000e+00  3.4267605617562440e-03  3.4447992794462219e-03  3.4552945463587610e-03  3.4586485553199896e-03  3.4549011338722412e-03  3.4439934281001523e-03  3.4258022025887487e-03  0.0000000000000000e+00  3.4518695487213459e-03  3.4329372995752900e-03  3.4199836168900769e-03  3.4126046933368758e-03  3.4106843831116199e-03  3.6421628338370281e-03  3.6434873515772338e-03  3.6486031524748568e-03  3.6572611131393392e-03  3.6692849459333625e-03  0.0000000000000000e+00  3.6204401817920809e-03  3.6317860548645236e-03  3.6384676850552641e-03  3.6406046174888478e-03  3.6381475091784451e-03  3.6311381274000210e-03  3.6197571641154807e-03  0.0000000000000000e+00  3.6695071404385070e-03  3.6576515803487396e-03  3.6493565923132209e-03  3.6445580918645394e-03  3.6433070535957946e-03  3.8607046168624769e-03  3.8614319391193858e-03  3.8642523438045151e-03  3.8688453427547856e-03  3.8748544434317016e-03  0.0000000000000000e+00  3.8309105535493659e-03  3.8365549051881148e-03  3.8399745609578226e-03  3.8410829443694923e-03  3.8397851183883894e-03  3.8361799765402145e-03  3.8305928466997054e-03  0.0000000000000000e+00  3.8746940772610376e-03  3.8688607289085564e-03  3.8645869785346658e-03  3.8620402895936717e-03  3.8613749400254970e-03  4.0710086833961653e-03  4.0713210999175969e-03  4.0725436731423219e-03  4.0743952323221725e-03  4.0765247252224851e-03  0.0000000000000000e+00  4.0476768204684510e-03  4.0497174126784431e-03  4.0510494578612777e-03  4.0515071424303334e-03  4.0509986452610929e-03  4.0496286962954575e-03  4.0477060476140012e-03  0.0000000000000000e+00  4.0762629261636603e-03  4.0742708734952532e-03  4.0726362234941565e-03  4.0715985341633707e-03  4.0713261755773375e-03  4.2775692963432843e-03  4.2776661232733640e-03  4.2780541456857316e-03  4.2785682835591986e-03  4.2790010818138458e-03  0.0000000000000000e+00  4.2649673210304407e-03  4.2655250625409091e-03  4.2659494118044931e-03  4.2661239669370687e-03  4.2659987628395441e-03  4.2656418561896310e-03  4.2652322759905116e-03  0.0000000000000000e+00  4.2787674554906514e-03  4.2784270329515491e-03  4.2780352422287895e-03  4.2777523048448162e-03  4.2776761443835661e-03  4.4828532056349693e-03  4.4828610136600352e-03  4.4829006659355391e-03  4.4829522864498457e-03  4.4830113303872526e-03  0.0000000000000000e+00  4.4815010945431742e-03  4.4818429949494048e-03  4.4820466362525306e-03  4.4821372035762971e-03  4.4821267320826058e-03  4.4820226436443093e-03  4.4818329976399254e-03  0.0000000000000000e+00  4.4828024075474803e-03  4.4828139149006947e-03  4.4828466724996302e-03  4.4828810350096403e-03  4.4828863252168536e-03  4.6880772520873828e-03  4.6879983593732921e-03  4.6877011473067708e-03  4.6872919032198033e-03  4.6869416565804367e-03  0.0000000000000000e+00  4.6986144936791933e-03  4.6986774637169347e-03  4.6985892399218371e-03  4.6985465870082533e-03  4.6986212547209865e-03  4.6987586021294851e-03  4.6988289724198421e-03  0.0000000000000000e+00  4.6866986076185896e-03  4.6871323887657124e-03  4.6876624064455964e-03  4.6880656017029903e-03  4.6881652039473818e-03  4.8945109607959579e-03  4.8942212182780664e-03  4.8931136601293697e-03  4.8913613515905348e-03  4.8892072356308451e-03  0.0000000000000000e+00  4.9175276216727876e-03  4.9159267785030963e-03  4.9147347385993375e-03  4.9142748138522275e-03  4.9146536469766135e-03  4.9157755478734600e-03  4.9174679410983538e-03  0.0000000000000000e+00  4.8889147162006711e-03  4.8911903461798288e-03  4.8931566539320076e-03  4.8944506912340542e-03  4.8947806107165585e-03  5.1047763281308394e-03  5.1040728439519885e-03  5.1013766557163678e-03  5.0968423879145788e-03  5.0906316523655556e-03  0.0000000000000000e+00  5.1366274510491923e-03  5.1311513409364072e-03  5.1276011892971585e-03  5.1263102065106673e-03  5.1273767702115312e-03  5.1307037350748546e-03  5.1362057679838792e-03  0.0000000000000000e+00  5.0903969903756978e-03  5.0967640203318032e-03  5.1016139194454873e-03  5.1045858789428309e-03  5.1053516123763139e-03  5.3236141440970519e-03  5.3223030149476963e-03  5.3172694668825607e-03  5.3085610383910012e-03  5.2960994090334593e-03  0.0000000000000000e+00  5.3496539647058241e-03  5.3381622155858587e-03  5.3310813244313868e-03  5.3285915997711491e-03  5.3307320154681332e-03  5.3374531754319466e-03  5.3488832302506584e-03  0.0000000000000000e+00  5.2961742279706535e-03  5.3087864264079561e-03  5.3178549613133955e-03  5.3232084507939875e-03  5.3245936623806302e-03  5.5577027438109975e-03  5.5557041750500967e-03  5.5480176302354330e-03  5.5345220487429247e-03  5.5147952669468486e-03  0.0000000000000000e+00  5.5455825154928648e-03  5.5270998103917057e-03  5.5160193479983121e-03  5.5122111922911460e-03  5.5156126969504232e-03  5.5262654865155768e-03  5.5445843560419589e-03  0.0000000000000000e+00  5.5155153844108212e-03  5.5353143808802635e-03  5.5490969339441545e-03  5.5570525562820463e-03  5.5591144316680698e-03  5.8143700734656677e-03  5.8118053918721638e-03  5.8019209281652585e-03  5.7844269912206538e-03  5.7585708123157322e-03  0.0000000000000000e+00  5.7106917392593841e-03  5.6863477338360280e-03  5.6720156115772601e-03  5.6671752703610625e-03  5.6716505476422235e-03  5.6855911737587516e-03  5.7096678113851464e-03  0.0000000000000000e+00  5.7602079518830193e-03  5.7859757850305515e-03  5.8035415339341822e-03  5.8135285843889271e-03  5.8161172926608799e-03  6.0994348863131313e-03  6.0966501316783205e-03  6.0858916072320897e-03  6.0667976154730229e-03  6.0384717822037559e-03  0.0000000000000000e+00  5.8326968459043527e-03  5.8060585248305360e-03  5.7905832698455914e-03  5.7854288106779879e-03  5.7903489179876796e-03  5.8055732199452917e-03  5.8318564537720398e-03  0.0000000000000000e+00  6.0410040424824151e-03  6.0690485188063499e-03  6.0879047950220862e-03  6.0985178986740054e-03  6.1012657890272080e-03  6.4148971485270666e-03  6.4123820491645755e-03  6.4026297856335746e-03  6.3853828333863090e-03  6.3599369819012609e-03  0.0000000000000000e+00  5.9058857532984623e-03  5.8823424777238323e-03  5.8687021446372292e-03  5.8641727115110818e-03  5.8685888001619993e-03  5.8821508028828644e-03  5.9053371831411993e-03  0.0000000000000000e+00  6.3629875141598133e-03  6.3879328768868130e-03  6.4046412763775042e-03  6.4140206083734882e-03  6.4164430072052364e-03  6.7576402672504974e-03  6.7558237332846077e-03  6.7487516876646517e-03  6.7365552986242191e-03  6.7191360940918373e-03  0.0000000000000000e+00  5.9361783000488558e-03  5.9206508292252930e-03  5.9110436208831673e-03  5.9076995573651122e-03  5.9108533903661064e-03  5.9205328222296481e-03  5.9363325201411098e-03  0.0000000000000000e+00  6.7214825712054293e-03  6.7384786123971885e-03  6.7501715473048058e-03  6.7568430341534676e-03  6.7585597685383466e-03  7.1203740042809745e-03  7.1193360324393927e-03  7.1152767980095129e-03  7.1086647103625212e-03  7.0999663271743589e-03  0.0000000000000000e+00  5.9463550543753605e-03  5.9351106481945531e-03  5.9275321042003871e-03  5.9247344442635227e-03  5.9275414485631395e-03  5.9350707704664586e-03  5.9440278209933160e-03  0.0000000000000000e+00  7.1008131560322124e-03  7.1094002982865258e-03  7.1157808216881667e-03  7.1195927647473992e-03  7.1205681565114183e-03  7.4950803717853086e-03  7.4945515097914195e-03  7.4924713524841787e-03  7.4892838345989596e-03  7.4855979666398637e-03  0.0000000000000000e+00  0.0000000000000000e+00  0.0000000000000000e+00  0.0000000000000000e+00  0.0000000000000000e+00  0.0000000000000000e+00  0.0000000000000000e+00  0.0000000000000000e+00  0.0000000000000000e+00  7.4845582662709477e-03  7.4888453907710597e-03  7.4921485341383036e-03  7.4941879638808400e-03  7.4947030617675599e-03  7.8762454980724466e-03  7.8759399419214594e-03  7.8746297021525542e-03  7.8724949227426556e-03  7.8697165437257837e-03  0.0000000000000000e+00  0.0000000000000000e+00  0.0000000000000000e+00  0.0000000000000000e+00  0.0000000000000000e+00  0.0000000000000000e+00  0.0000000000000000e+00  0.0000000000000000e+00  0.0000000000000000e+00  7.8687028809371045e-03  7.8717105407653757e-03  7.8739367171562161e-03  7.8752554848399697e-03  7.8755863872963013e-03  8.2613917220882762e-03  8.2613297402440427e-03  8.2601989629825824e-03  8.2582229122321119e-03  8.2556988920498304e-03  0.0000000000000000e+00  0.0000000000000000e+00  0.0000000000000000e+00  0.0000000000000000e+00  0.0000000000000000e+00  0.0000000000000000e+00  0.0000000000000000e+00  0.0000000000000000e+00  0.0000000000000000e+00  8.2546362148627119e-03  8.2576492656118942e-03  8.2594884191618916e-03  8.2603815120108684e-03  8.2607172779124646e-03  8.6515574917866312e-03  8.6502827236237638e-03  8.6483650347921950e-03  8.6465716780965811e-03  8.6445440465626622e-03  0.0000000000000000e+00  0.0000000000000000e+00  0.0000000000000000e+00  0.0000000000000000e+00  0.0000000000000000e+00  0.0000000000000000e+00  0.0000000000000000e+00  0.0000000000000000e+00  0.0000000000000000e+00  8.6462674167055598e-03  8.6476353147683857e-03  8.6480398577104475e-03  8.6484560151024251e-03  8.6489482618485828e-03  9.0496083321472253e-03  9.0383443414203610e-03  9.0384828390931825e-03  9.0375721181726893e-03  9.0284075004461381e-03  0.0000000000000000e+00  0.0000000000000000e+00  0.0000000000000000e+00  0.0000000000000000e+00  0.0000000000000000e+00  0.0000000000000000e+00  0.0000000000000000e+00  0.0000000000000000e+00  0.0000000000000000e+00  9.0480316717963510e-03  9.0384293353307325e-03  9.0386385328713095e-03  9.0377474891108027e-03  9.0297147735525531e-03  </DataArray> 
</PointData> 
</Piece>
</UnstructuredGrid>
</VTKFile>