<?xml version="1.0"?>
<VTKFile type="UnstructuredGrid"  version="0.1"  >
<UnstructuredGrid>
<Piece  NumberOfPoints="589" NumberOfCells="1080">
<Points>
<DataArray  type="Float64"  NumberOfComponents="3"  format="ascii">-9 0 0  -8 0 0  -7 0 0  -6 0 0  -5 0 0  -4 0 0  -3 0 0  -2 0 0  -1 0 0  0 0 0  1 0 0  2 0 0  3 0 0  4 0 0  5 0 0  6 0 0  7 0 0  8 0 0  9 0 0  -9 2 0  -8.000007347753531 1.99998909675088 0  -7.000015411250105 1.999979523830872 0  -6.000025866174561 1.999972359886009 0  -5.000042537211473 1.999968073279319 0  -4.000025367488418 1.999976193126937 0  -3.000007687945436 1.99998381717459 0  -1.999999013035007 1.99999094000384 0  -0.9999974533427529 1.999996569662687 0  -3.399504728196097e-07 1.999999048675166 0  0.9999964411200682 1.999997371027486 0  1.999996879379683 1.999991952310165 0  3.000003652866539 1.999985310726215 0  4.00001758296648 1.999978229340726 0  5.000037711107318 1.999975429165242 0  6.000022718852313 1.999976432153056 0  7.000013495680049 1.999981812599062 0  8.000006440429162 1.999990152606313 0  9 2 0  -9 4 0  -8.000011832371758 3.999972872860365 0  -7.000021256814294 3.999949412265733 0  -6.000026867816814 3.999933210693226 0  -5.000028959755945 3.999927695922124 0  -4.000004055771372 3.999931493126339 0  -2.999987291589615 3.999952860946248 0  -1.999982781605881 3.99998065617878 0  -0.9999889058129484 4.000003013130028 0  -8.252805665679399e-07 4.000012055479583 0  0.9999869891060681 4.000005105781348 0  1.999979963909104 3.999986239996336 0  2.999983523174461 3.999960704242647 0  3.999999308762663 3.999935080211517 0  5.000023349126688 3.999926675036321 0  6.000022361219621 3.999935354909323 0  7.000018319497972 3.999951787665448 0  8.000010421293302 3.999974276406668 0  9 4 0  -9 6 0  -8.000025947861536 5.999941986077517 0  -7.000042356076223 5.999890267648516 0  -6.00004194573738 5.999851317208396 0  -5.000022630319076 5.999831340128004 0  -3.999974187135631 5.999863004326565 0  -2.999952084841916 5.999929052259795 0  -1.999960627044463 5.999998261459537 0  -0.9999821152580399 6.000036735119537 0  -3.842117510599611e-06 6.000044500066724 0  0.9999766673303301 6.000032111975946 0  1.999961871171928 5.999997801152322 0  2.999956416079624 5.999939839890885 0  3.999967923712305 5.99987978731685 0  5.000009121065129 5.999850180892631 0  6.000034218806991 5.999863268922066 0  7.000038568371037 5.999897541994213 0  8.000024493221972 5.999945463843359 0  9 6 0  -9 8 0  -8.000078212283887 7.999885932440241 0  -7.000130723819543 7.99978006732926 0  -6.000132640679708 7.999693546307855 0  -5.000062660177652 7.999644735675778 0  -3.999969073555451 7.999790671494431 0  -2.999986267084814 7.999962098175747 0  -2.000021313642432 8.000045595742529 0  -1.000024226769317 8.000055068813619 0  -3.242337213782699e-06 8.000057816412117 0  1.000012526120748 8.000066183463556 0  2.000006281862274 8.000031488919641 0  2.999965930083755 7.999972383676876 0  3.99995243829096 7.999825904845591 0  5.000044167802277 7.999660615159181 0  6.00012905758005 7.999706465023488 0  7.000132502881412 7.999788718227299 0  8.000080226118886 7.999890206903912 0  9 8 0  -9 10 0  -8.000233203455524 9.99979713044657 0  -7.000421388085233 9.999592585726917 0  -6.000510847334701 9.999385090660407 0  -5.000426769825584 9.999174321166446 0  -4.000278461215698 9.999645382439843 0  -3.00030266752922 10.00005037531148 0  -2.000242369973102 9.999980493658301 0  -1.000111950475247 9.999958069425839 0  -1.5906618970284e-05 9.999952600881302 0  1.000079312728883 9.999953038202785 0  2.000205925898126 9.999950568500049 0  3.00031761427861 10.00009571858006 0  4.000303965162983 9.999713094175435 0  5.000471873504226 9.999208214361687 0  6.00054951175142 9.999404173049546 0  7.000449223215464 9.999603022562564 0  8.000247689475344 9.999801776641929 0  9 10 0  -9 12 0  -8.000567916720724 11.99971516028082 0  -7.001106377316314 11.999417126775 0  -6.001582087125445 11.99909011804549 0  -5.001953743688553 11.99871212362931 0  -4.001878021985219 11.99957092412341 0  -3.001946636340287 12.00042116577092 0  -2.001337762933839 12.00031799231399 0  -1.000660560826637 12.000261976919 0  4.254735371839299e-05 12.00025072875006 0  1.000752742819613 12.00028598864431 0  2.001454210862529 12.00037807415845 0  3.002115530526808 12.00055284586342 0  4.002042954185892 11.99963512875025 0  5.002091121859509 11.99870983651139 0  6.001680874574479 11.99909060571571 0  7.001170524892006 11.99941788553176 0  8.000599531377137 11.99971557888215 0  9 12 0  -9 14 0  -8.001019725444708 13.99968611355864 0  -7.002041202724614 13.99935782536536 0  -6.003067543807171 13.99899946295086 0  -5.004105349539895 13.99859286202907 0  -4.004116166955978 13.99959659524925 0  -3.004122423866014 14.00061304440895 0  -2.002707846234944 14.00046713233853 0  -1.001313400002847 14.00038705715662 0  7.282059256712233e-05 14.00036304600282 0  1.001462146863049 14.00039190893212 0  2.002865113237676 14.00047522680583 0  3.004290063427632 14.00061753902553 0  4.004301396956231 13.99959905344993 0  5.004307426508676 13.99858691593082 0  6.003210894191248 13.99899156927792 0  7.002133376134132 13.9993514370861 0  8.001064885063098 13.9996826576645 0  9 14 0  -9 16 0  -8.001463532172242 15.9997147725223 0  -7.00295493483691 15.99941902965846 0  -6.004504505438756 15.99910207581095 0  -5.006147471091006 15.99875302549198 0  -4.006205974408508 15.9996095042079 0  -3.006150930934235 16.00046144291471 0  -2.003999977805793 16.00035372307527 0  -1.001934465987776 16.00028852413795 0  9.071166057107305e-05 16.0002644472165 0  1.002118186121558 16.0002805801646 0  2.004190604248826 16.00033697169351 0  3.006353345619062 16.00043441513041 0  4.006415337549635 15.9995725274564 0  5.006361135636893 15.99870998504785 0  6.004661895447721 15.99907206436886 0  7.003058325265408 15.99939985015591 0  8.001514744496305 15.99970539276743 0  9 16 0  -9 18 0  -8.001794790956023 17.99978551875658 0  -7.003634126080149 17.9995651813853 0  -6.005564867622591 17.99933324131175 0  -5.007638489266555 17.9990841952527 0  -4.007726743829695 17.99961252262873 0  -3.007641885045226 18.00014017123299 0  -2.004953652051138 18.00007089074807 0  -1.002395738065318 18.00002618187493 0  9.935399129114296e-05 18.00000567991763 0  1.002595847184843 18.00000887288839 0  2.005157873975357 18.0000351364822 0  3.007852614578018 18.0000836069694 0  4.007942537211971 17.99955273475664 0  5.007856900850955 17.99902343492787 0  6.005726837036296 17.99928998290598 0  7.003741194845602 17.99953738904441 0  8.001848047017713 17.9997719250203 0  9 18 0  -9 20 0  -8.001946901892454 19.9998796729992 0  -7.00394577034852 19.99975776876519 0  -6.006050554121098 19.99963288671674 0  -5.008319165218855 19.99950397324301 0  -4.00841980728438 19.99961263760674 0  -3.00832060564087 19.9997205486822 0  -2.005389761317665 19.99969025179657 0  -1.002607482561262 19.99966750784477 0  0.0001023171206687737 19.99965262798554 0  1.002812969038326 19.99964536158523 0  2.005597769078521 19.99964491590556 0  3.008532703592483 19.9996499079579 0  4.008633853929413 19.99954289978779 0  5.008534045052841 19.99943696390691 0  6.006210619269081 19.99958453811322 0  7.004051948628754 19.99972644419505 0  8.001999829642029 19.99986428266865 0  8.99999999999214 19.9999999999934 0  -9 22 0  -8.001890249368095 21.99998011732896 0  -7.00383184406855 21.99996226260683 0  -6.005877736129051 21.99994866064269 0  -5.008084076705701 21.9999419338746 0  -4.008182575844324 21.99960872415565 0  -3.00808502786843 21.99927467049323 0  -2.005235365694332 21.99927956019603 0  -1.002531077912758 21.99927755160451 0  0.0001018656856856294 21.99926929637395 0  1.002735255663341 21.9992547278239 0  2.005440860306615 21.99923307459879 0  3.008292644924948 21.99920284756693 0  4.008389819282741 21.99953975035594 0  5.008290390004142 21.99987725666651 0  6.006032040735959 21.99990175331174 0  7.003934493684459 21.99993174871249 0  8.001941502641419 21.99996508761755 0  9 22 0  -9 24 0  -8.00162729432575 24.00007245021446 0  -7.003298778523893 24.00014974392847 0  -6.005059881006852 24.00023692548242 0  -5.00695842440455 24.00033945450214 0  -4.007043351875264 23.99960104084299 0  -3.006959980278223 23.99886186388619 0  -2.004503117518053 23.99889631520433 0  -1.002170978545922 23.99891244357287 0  9.971563504319284e-05 23.99891107811674 0  1.002370548205555 23.99889228210728 0  2.004703086462463 23.99885535605635 0  3.007160563527898 23.99879883262368 0  4.007241698253934 23.99954153091259 0  5.007154565511005 24.00028456689581 0  6.005207053694386 24.00019695063436 0  7.00339691074706 24.00012366133875 0  8.001676357705286 24.00005957952383 0  9 24 0  -9 26 0  -8.001186529869969 26.00014542767412 0  -7.002405173033147 26.00029768339504 0  -6.003688915505365 26.00046379802006 0  -5.005072322986935 26.0006512221011 0  -4.005134993832323 25.99959012626812 0  -3.005075216724643 25.9985284368081 0  -2.003275483287242 25.99858603334862 0  -1.001566690700666 25.99861698099753 0  9.716191789635123e-05 25.99862224773043 0  1.001760923150363 25.99860201276291 0  2.00346942634931 25.99855566725597 0  3.005268626979108 25.99848181227568 0  4.005324830527035 25.99954661853333 0  5.005259034346058 26.00061156483872 0  6.003829410808443 26.0004348396166 0  7.002499040470862 26.00027875137553 0  8.001233516714343 26.00013607354949 0  9 26 0  -9 28 0  -8.000616096041147 28.00019111435995 0  -7.001248951847482 28.00039019953918 0  -6.00191582171136 28.00060543141245 0  -5.00263472016382 28.00084540233584 0  -4.002669206154165 27.99957700967053 0  -3.002639205139646 27.99830830419964 0  -2.001687523040755 27.99838200047652 0  -1.000784199481631 27.99842389017362 0  9.512698705877065e-05 27.99843506506003 0  1.000974208073528 27.99841581711535 0  2.001876777247388 27.99836563494067 0  3.002827141571771 27.99828320273627 0  4.002852762617423 27.99955387095489 0  5.002814610077323 28.00082459443477 0  6.002051475753664 28.00059020475728 0  7.001339724013133 28.00038022850071 0  8.000661577024184 
[...]
<PointData  Scalars="f_44-1"> 
<DataArray  type="Float64"  Name="f_44-1"  format="ascii">1.5471571075299508e-03  8.5913968947923269e-05  6.7586412098951656e-05  1.9282317990796009e-04  -1.8291466237739735e-03  0.0000000000000000e+00  0.0000000000000000e+00  0.0000000000000000e+00  0.0000000000000000e+00  0.0000000000000000e+00  0.0000000000000000e+00  0.0000000000000000e+00  0.0000000000000000e+00  0.0000000000000000e+00  1.5633867107031003e-03  8.5518592510627994e-05  6.8161089055003538e-05  1.8982736825908127e-04  -1.8591294212810226e-03  8.4694877258046516e-02  8.4748725730746655e-02  8.4674910920185045e-02  8.4439698987617856e-02  8.4326341510967781e-02  0.0000000000000000e+00  0.0000000000000000e+00  0.0000000000000000e+00  0.0000000000000000e+00  0.0000000000000000e+00  0.0000000000000000e+00  0.0000000000000000e+00  0.0000000000000000e+00  0.0000000000000000e+00  8.4865204298473051e-02  8.4918432915512501e-02  8.4842291791751026e-02  8.4604553425039128e-02  8.4489703831173268e-02  1.6929079544000217e-01  1.6928243340392499e-01  1.6923995960835075e-01  1.6921807338105607e-01  1.6923947541028331e-01  0.0000000000000000e+00  0.0000000000000000e+00  0.0000000000000000e+00  0.0000000000000000e+00  0.0000000000000000e+00  0.0000000000000000e+00  0.0000000000000000e+00  0.0000000000000000e+00  0.0000000000000000e+00  1.6960938863048741e-01  1.6960920885334368e-01  1.6957442663370573e-01  1.6955826747235628e-01  1.6958578884325487e-01  2.5391914218990524e-01  2.5391267621781194e-01  2.5390628589284864e-01  2.5390015975890712e-01  2.5388095535758914e-01  0.0000000000000000e+00  0.0000000000000000e+00  0.0000000000000000e+00  0.0000000000000000e+00  0.0000000000000000e+00  0.0000000000000000e+00  0.0000000000000000e+00  0.0000000000000000e+00  0.0000000000000000e+00  2.5441067958878394e-01  2.5439991532235567e-01  2.5439902586815111e-01  2.5440200670280083e-01  2.5440187592603003e-01  3.3859366496686705e-01  3.3858159008966199e-01  3.3855748143846653e-01  3.3849803933231898e-01  3.3845215014904012e-01  0.0000000000000000e+00  0.0000000000000000e+00  0.0000000000000000e+00  0.0000000000000000e+00  0.0000000000000000e+00  0.0000000000000000e+00  0.0000000000000000e+00  0.0000000000000000e+00  0.0000000000000000e+00  3.3918359898194739e-01  3.3920608463660362e-01  3.3921114838444216e-01  3.3921866808233497e-01  3.3922423361627196e-01  4.2330999409795467e-01  4.2329428186233481e-01  4.2327485543076782e-01  4.2327224452760581e-01  4.2330745373510109e-01  0.0000000000000000e+00  1.2907536078488882e+00  1.2906641202266500e+00  1.2908060001317052e+00  1.2908138982916662e+00  1.2908174319477206e+00  1.2907080842155152e+00  1.2899191058847466e+00  0.0000000000000000e+00  4.2399876269850417e-01  4.2400315950317352e-01  4.2401396190091550e-01  4.2403650181988062e-01  4.2404917003677312e-01  5.0805819712327593e-01  5.0803432018057626e-01  5.0799078962337008e-01  5.0793272511207699e-01  5.0780763806523399e-01  0.0000000000000000e+00  1.2908319018350294e+00  1.2908641212377483e+00  1.2908778355112271e+00  1.2908593547879004e+00  1.2908581458494512e+00  1.2908418598401408e+00  1.2910050150817658e+00  0.0000000000000000e+00  5.0865306362098384e-01  5.0873703070196818e-01  5.0883156607644209e-01  5.0888615422173211e-01  5.0890859267086841e-01  5.9289687302479777e-01  5.9286539967100094e-01  5.9279182314427259e-01  5.9267532334434292e-01  5.9249727379860784e-01  0.0000000000000000e+00  1.2912063391237303e+00  1.2910523206158195e+00  1.2909398068192393e+00  1.2909006769079154e+00  1.2909112407429864e+00  1.2909669309370086e+00  1.2910632508964213e+00  0.0000000000000000e+00  5.9341723377885325e-01  5.9361719034145177e-01  5.9376181097897218e-01  5.9384877318135321e-01  5.9388045317017824e-01  6.7790990266444617e-01  6.7787379108755907e-01  6.7777564632923160e-01  6.7761354687217568e-01  6.7736765604447846e-01  0.0000000000000000e+00  1.2911232596945044e+00  1.2909307731215434e+00  1.2908101641013814e+00  1.2907621805432790e+00  1.2907827258688964e+00  1.2908717913556040e+00  1.2910463941163530e+00  0.0000000000000000e+00  6.7845935723903261e-01  6.7872203098761075e-01  6.7891165585067659e-01  6.7902286293108260e-01  6.7905909072490811e-01  7.6317066742418771e-01  7.6313394418745550e-01  7.6302354148664486e-01  7.6283737245829586e-01  7.6256049029055117e-01  0.0000000000000000e+00  1.2907810421053185e+00  1.2905413367586556e+00  1.2903934355145388e+00  1.2903367885429060e+00  1.2903691672182298e+00  1.2904903540436130e+00  1.2907123084055361e+00  0.0000000000000000e+00  7.6388433197654193e-01  7.6416370226730868e-01  7.6436146902896962e-01  7.6447800471626914e-01  7.6451365258986526e-01  8.4872157225651634e-01  8.4868823351031042e-01  8.4857938730076155e-01  8.4839366804493965e-01  8.4812042652960606e-01  0.0000000000000000e+00  1.2900328987916727e+00  1.2897751975895082e+00  1.2896206673617734e+00  1.2895634006410308e+00  1.2896021658909853e+00  1.2897380503726803e+00  1.2899784691909129e+00  0.0000000000000000e+00  8.4968221004265787e-01  8.4994774545902574e-01  8.5013237516176976e-01  8.5024054420620621e-01  8.5027143525726756e-01  9.3456760029991293e-01  9.3454093962620932e-01  9.3444621944707484e-01  9.3428280622490978e-01  9.3404372739209451e-01  0.0000000000000000e+00  1.2888594923409780e+00  1.2886107472337403e+00  1.2884644607294780e+00  1.2884109342001815e+00  1.2884502592420806e+00  1.2885843772278798e+00  1.2888166203595308e+00  0.0000000000000000e+00  9.3583515363110059e-01  9.3605665298735796e-01  9.3620756540688521e-01  9.3629562775436581e-01  9.3631847592880368e-01  1.0206782972573161e+00  1.0206606089642676e+00  1.0205900626614590e+00  1.0204665631290739e+00  1.0202864698417677e+00  0.0000000000000000e+00  1.2872761005589073e+00  1.2870615516946629e+00  1.2869376119251583e+00  1.2868922488472725e+00  1.2869266220415594e+00  1.2870432609987854e+00  1.2872413474060236e+00  0.0000000000000000e+00  1.0222817154679342e+00  1.0224356035151729e+00  1.0225369464188898e+00  1.0225958453518678e+00  1.0226084407092466e+00  1.1069937829106751e+00  1.1069862398811434e+00  1.1069467231740280e+00  1.1068753971596419e+00  1.1067716858249337e+00  0.0000000000000000e+00  1.2853414492539159e+00  1.2851823391234751e+00  1.2850925164895144e+00  1.2850589650540829e+00  1.2850837053254025e+00  1.2851696290930692e+00  1.2853121200794027e+00  0.0000000000000000e+00  1.1089303833295012e+00  1.1090010125281300e+00  1.1090427824690792e+00  1.1090669057638742e+00  1.1090682709164834e+00  1.1934329941591846e+00  1.1934356292573050e+00  1.1934304393816022e+00  1.1934175374039326e+00  1.1933990893231763e+00  0.0000000000000000e+00  1.2831506480932782e+00  1.2830622001579286e+00  1.2830147024896863e+00  1.2829954674963209e+00  1.2830071434887986e+00  1.2830527493941488e+00  1.2831243888256252e+00  0.0000000000000000e+00  1.1956702268599619e+00  1.1956507023771381e+00  1.1956291102721690e+00  1.1956165295117662e+00  1.1956069040158162e+00  1.2799031952897482e+00  1.2799149693167591e+00  1.2799437604982240e+00  1.2799893426255597e+00  1.2800562094602226e+00  0.0000000000000000e+00  1.2808245463882408e+00  1.2808147745153409e+00  1.2808135679736929e+00  1.2808097823840801e+00  1.2808064344888179e+00  1.2808064321592030e+00  1.2807993065144305e+00  0.0000000000000000e+00  1.2823817534777231e+00  1.2822742032280705e+00  1.2821918004931059e+00  1.2821442912202439e+00  1.2821250390246057e+00  1.3663099430753674e+00  1.3663288873454624e+00  1.3663878444340511e+00  1.3664860313975620e+00  1.3666297097745250e+00  0.0000000000000000e+00  1.2784976916833024e+00  1.2785667611169875e+00  1.2786112058721455e+00  1.2786224810260536e+00  1.2786037077482151e+00  1.2785574396101624e+00  1.2784715403520239e+00  0.0000000000000000e+00  1.3689484257692626e+00  1.3687636242212946e+00  1.3686289535684157e+00  1.3685517534224398e+00  1.3685251943984589e+00  1.4525667631974126e+00  1.4525901919360515e+00  1.4526724543780787e+00  1.4528120926080716e+00  1.4530163870250414e+00  0.0000000000000000e+00  1.2763051415991173e+00  1.2764453174423913e+00  1.2765301551005208e+00  1.2765545515837902e+00  1.2765214749303975e+00  1.2764328851300288e+00  1.2762760736343903e+00  0.0000000000000000e+00  1.4552676215603928e+00  1.4550240365367484e+00  1.4548508800967903e+00  1.4547522095841172e+00  1.4547213862794715e+00  1.5386038423773842e+00  1.5386286325583587e+00  1.5387249453506628e+00  1.5388906704841834e+00  1.5391331427643475e+00  0.0000000000000000e+00  1.2743691536871935e+00  1.2745653435350510e+00  1.2746810184267308e+00  1.2747151305047884e+00  1.2746702441617703e+00  1.2745474956964389e+00  1.2743349064966973e+00  0.0000000000000000e+00  1.5412605534194390e+00  1.5409827971221142e+00  1.5407890213648077e+00  1.5406793539631700e+00  1.5406477330716988e+00  1.6243751165425750e+00  1.6243979767438554e+00  1.6244975982386765e+00  1.6246714131246178e+00  1.6249254864036462e+00  0.0000000000000000e+00  1.2727866547343922e+00  1.2730175361046936e+00  1.2731508820821651e+00  1.2731900562142298e+00  1.2731369937113506e+00  1.2729917971223301e+00  1.2727446136925975e+00  0.0000000000000000e+00  1.6268804972737783e+00  1.6265971635557561e+00  1.6264031204063492e+00  1.6262942085143639e+00  1.6262653234847793e+00  1.7098627198229523e+00  1.7098808689800744e+00  1.7099730236408743e+00  1.7101363047086418e+00  1.7103739032869718e+00  0.0000000000000000e+00  1.2716185356255736e+00  1.2718581585639863e+00  1.2719935342735351e+00  1.2720322807123299e+00  1.2719754441299700e+00  1.2718218203105176e+00  1.2715652794210586e+00  0.0000000000000000e+00  1.7121186369347667e+00  1.7118595619619776e+00  1.7116860483952232e+00  1.7115896327527171e+00  1.7115666491642736e+00  1.7950788718593431e+00  1.7950897808167474e+00  1.7951640483235769e+00  1.7952991208328046e+00  1.7954937587700093e+00  0.0000000000000000e+00  1.2708803075676511e+00  1.2711020203071353e+00  1.2712230284702004e+00  1.2712554965932632e+00  1.2711991618082141e+00  1.2710518750760154e+00  1.2708129584309005e+00  0.0000000000000000e+00  1.7970071404659120e+00  1.7968000072372439e+00  1.7966653267432053e+00  1.7965916178863324e+00  1.7965768227192536e+00  1.8800636008616480e+00  1.8800675755722498e+00  1.8801186703404849e+00  1.8802151793419088e+00  1.8803472443332530e+00  0.0000000000000000e+00  1.2705440895404898e+00  1.2707189046050593e+00  1.2708080475908419e+00  1.2708287695667877e+00  1.2707810879485972e+00  1.2706608629321428e+00  1.2704687573876774e+00  0.0000000000000000e+00  1.8816204409738273e+00  1.8814825718028194e+00  1.8814008255616197e+00  1.8813566408196878e+00  1.8813509057362221e+00  1.9648752133433121e+00  1.9648715244535677e+00  1.9648945340091972e+00  1.9649525990652743e+00  1.9650263130226429e+00  0.0000000000000000e+00  1.2705274816487644e+00  1.2706238991845786e+00  1.2706799463951899e+00  1.2706906401612907e+00  1.2706512764434932e+00  1.2705383018945349e+00  1.2703845073756757e+00  0.0000000000000000e+00  1.9660455262434529e+00  1.9660032726956238e+00  1.9659771564225146e+00  1.9659644731713652e+00  1.9659667301915102e+00  2.0495889632973787e+00  2.0495813677620185e+00  2.0495840077038925e+00  2.0495909543999562e+00  2.0495478539640284e+00  0.0000000000000000e+00  1.2705864826241851e+00  1.2707504386549135e+00  1.2707349257844438e+00  1.2707340443816755e+00  1.2707154171293760e+00  1.2707283518744472e+00  1.2707583165280687e+00  0.0000000000000000e+00  2.0504833670781646e+00  2.0504656394317351e+00  2.0504922744282332e+00  2.0505050082197616e+00  2.0505122721389393e+00  2.1342837950286486e+00  2.1342742689829377e+00  2.1342557438756953e+00  2.1342055242206879e+00  2.1341512624824981e+00  0.0000000000000000e+00  1.2716713709978313e+00  1.2708857355475565e+00  1.2707791552272574e+00  1.2707830476650392e+00  1.2707903782961332e+00  1.2709294581866317e+00  1.2708410012060647e+00  0.0000000000000000e+00  2.1348397969281256e+00  2.1349770058416415e+00  2.1350332708136963e+00  2.1350590900873989e+00  2.1350670425774902e+00  2.2190158818257495e+00  2.2190120520242118e+00  2.2189936004623290e+00  2.2189667447156061e+00  2.2189535029228717e+00  0.0000000000000000e+00  0.0000000000000000e+00  0.0000000000000000e+00  0.0000000000000000e+00  0.0000000000000000e+00  0.0000000000000000e+00  0.0000000000000000e+00  0.0000000000000000e+00  0.0000000000000000e+00  2.2196379910325019e+00  2.2196465646229795e+00  2.2196543924490464e+00  2.2196693049892904e+00  2.2196759386643459e+00  2.3038089806221067e+00  2.3037826342559318e+00  2.3037783340447171e+00  2.3037731291969710e+00  2.3037443761955010e+00  0.0000000000000000e+00  0.0000000000000000e+00  0.0000000000000000e+00  0.0000000000000000e+00  0.0000000000000000e+00  0.0000000000000000e+00  0.0000000000000000e+00  0.0000000000000000e+00  0.0000000000000000e+00  2.3043460406595191e+00  2.3043102980956500e+00  2.3043143173153116e+00  2.3043240805619072e+00  2.3043179586958975e+00  2.3885251595315018e+00  2.3885658400996630e+00  2.3885822729754906e+00  2.3885212447541471e+00  2.3885083257369635e+00  0.0000000000000000e+00  0.0000000000000000e+00  0.0000000000000000e+00  0.0000000000000000e+00  0.0000000000000000e+00  0.0000000000000000e+00  0.0000000000000000e+00  0.0000000000000000e+00  0.0000000000000000e+00  2.3889043837543023e+00  2.3889387161600997e+00  2.3889518177531728e+00  2.3888918083957673e+00  2.3888820725042264e+00  2.4734526033090112e+00  2.4735702977497058e+00  2.4734461589472834e+00  2.4735225477673857e+00  2.4737461036483470e+00  0.0000000000000000e+00  0.0000000000000000e+00  0.0000000000000000e+00  0.0000000000000000e+00  0.0000000000000000e+00  0.0000000000000000e+00  0.0000000000000000e+00  0.0000000000000000e+00  0.0000000000000000e+00  2.4736622358983009e+00  2.4737635612480986e+00  2.4736355630469653e+00  2.4737059023016226e+00  2.4739192181220369e+00  2.5609629871703521e+00  2.5579187078779020e+00  2.5579059978843381e+00  2.5580239256959061e+00  2.5562523390811145e+00  0.0000000000000000e+00  0.0000000000000000e+00  0.0000000000000000e+00  0.0000000000000000e+00  0.0000000000000000e+00  0.0000000000000000e+00  0.0000000000000000e+00  0.0000000000000000e+00  0.0000000000000000e+00  2.5609120998093418e+00  2.5579233507733652e+00  2.5579081665400629e+00  2.5580230063039604e+00  2.5562803932951641e+00  </DataArray> 
</PointData> 
</Piece>
</UnstructuredGrid>
</VTKFile>