<?xml version="1.0"?>
<VTKFile type="UnstructuredGrid"  version="0.1"  >
<UnstructuredGrid>
<Piece  NumberOfPoints="589" NumberOfCells="1080">
<Points>
<DataArray  type="Float64"  NumberOfComponents="3"  format="ascii">-9 0 0  -8 0 0  -7 0 0  -6 0 0  -5 0 0  -4 0 0  -3 0 0  -2 0 0  -1 0 0  0 0 0  1 0 0  2 0 0  3 0 0  4 0 0  5 0 0  6 0 0  7 0 0  8 0 0  9 0 0  -9 2 0  -8.00000484341794 1.999992789397917 0  -7.000010145103361 1.99998646753273 0  -6.000016996744715 1.999981756304007 0  -5.000027906060853 1.99997897344128 0  -4.000016558993703 1.999984304845653 0  -3.00000490899699 1.999989354704119 0  -1.999999228302927 1.999994093349215 0  -0.999998279581326 1.999997843018501 0  -2.924770458996833e-07 1.999999503314912 0  0.9999974623641772 1.999998406901443 0  1.999997628689074 1.99999483568314 0  3.000001972659705 1.999990472047412 0  4.000011016967551 1.999985861530696 0  5.000024087721021 1.99998416357379 0  6.000014463270994 1.999984715297627 0  7.000008581805729 1.999988167216643 0  8.000004095944899 1.999993583115915 0  9 2 0  -9 4 0  -8.000007853694823 3.999982024141515 0  -7.000014090394342 3.999966492738853 0  -6.000017762758023 3.999955799263229 0  -5.000019060972308 3.999952223236398 0  -4.000002564065096 3.99995477791607 0  -2.999991503738588 3.999969011621932 0  -1.999988615702625 3.999987513288787 0  -0.9999928193262666 4.000002406371594 0  -8.846614602441267e-07 4.0000084516625 0  0.999990866176378 4.00000388267487 0  1.999986033809924 3.999991423234698 0  2.999988214290852 3.999974571969274 0  3.999998499822609 3.999957712739381 0  5.000014281745035 3.999952357209156 0  6.000013954549787 3.999957829997062 0  7.00001158112625 3.999968478812628 0  8.000006632112843 3.999983162605286 0  9 4 0  -9 6 0  -8.00001733157818 5.999961482496057 0  -7.000028292995416 5.999927167562539 0  -6.000028025373711 5.999901373701716 0  -5.000015141067466 5.999888233463103 0  -3.999982976641629 5.999909386673525 0  -2.99996836893168 5.999953417603503 0  -1.999974206240713 5.999999542240436 0  -0.9999886646845781 6.000025168520951 0  -3.263817676732215e-06 6.000030356963459 0  0.9999836405997412 6.000022173664701 0  1.999973669117268 5.999999463401024 0  2.999969904552557 5.999961093700572 0  3.999977402186933 5.999921381975229 0  5.000004604604888 5.999901903360804 0  6.00002163071303 5.999910241793958 0  7.000024882425367 5.999932651878789 0  8.000015900126018 5.999964128992103 0  9 6 0  -9 8 0  -8.000052286538955 7.999924137182143 0  -7.000087409228689 7.999853765202013 0  -6.000088753270154 7.999796340652359 0  -5.000042138358523 7.999764145882545 0  -3.999979805645434 7.999861490129188 0  -2.999991478909675 7.999975844603421 0  -2.000015057894992 8.00003148812395 0  -1.00001719242539 8.000037709386429 0  -3.361223282029071e-06 8.000039497519264 0  1.000007021404193 8.000045063316199 0  2.000002803461666 8.000022093352854 0  2.99997591896009 7.999982992478814 0  3.999966839071833 7.999885909264195 0  5.000027617370987 7.999776365645099 0  6.000084399414773 7.999806376657049 0  7.000087114023394 7.999860564202286 0  8.000052834543391 7.999927525352382 0  9 8 0  -9 10 0  -8.000155863400771 9.99986485548254 0  -7.000281602329258 9.999728614861485 0  -6.000341283014224 9.999590457329695 0  -5.000284896853344 9.999450207301031 0  -4.000185870559486 9.999764910582631 0  -3.000202426497597 10.00003548594417 0  -2.0001626411829 9.999988536705896 0  -1.000075874293929 9.999973476656093 0  -1.211414552659665e-05 9.999969809186659 0  1.000051037751963 9.999970127421301 0  2.000135000514338 9.999968586194539 0  3.000208960372058 10.00006516991484 0  4.000199810206728 9.999811252482102 0  5.000311313055397 9.999476206012265 0  6.000363367085378 9.999605859847755 0  7.000297277435052 9.999737412478702 0  8.000163960160787 9.999868886931285 0  9 10 0  -9 12 0  -8.000379782590315 11.99981001594395 0  -7.0007397744913 11.99961122964062 0  -6.001057590860342 11.99939311393242 0  -5.001305487483509 11.99914098309451 0  -4.001254515666699 11.99971569488032 0  -3.001300528228643 12.00028476206714 0  -2.000896520841057 12.00021553105995 0  -1.000446201584201 12.00017771710992 0  2.181731137760226e-05 12.00016974663936 0  1.000494779650598 12.00019276250937 0  2.000961987257511 12.0002535919947 0  3.001402380759062 12.00036936657383 0  4.00135431414308 11.99975991811775 0  5.001386503797058 11.99914550826469 0  6.001114561994223 11.99939787291475 0  7.000776177665482 11.9996146502361 0  8.000397551243536 11.99981174157162 0  9 12 0  -9 14 0  -8.000682542756271 13.99979045086339 0  -7.001366133666761 13.99957127534877 0  -6.002052696541329 13.99933199655372 0  -5.002746477228212 13.99906047055343 0  -4.002753193663047 13.99973359313427 0  -3.002757585231055 14.00041523305778 0  -2.001816253607852 14.00031697721602 0  -1.000887595907249 14.00026268975809 0  3.604448116798632e-05 14.00024583581217 0  1.000962002385797 14.00026426157662 0  2.001897112929612 14.00031898780711 0  3.002846756198417 14.00041300616354 0  4.002854543927661 13.99973657622178 0  5.002858763393075 13.99906437858638 0  6.00213076457095 13.99933248453102 0  7.001415600214429 13.99957078082323 0  8.000706563822664 13.99979000927427 0  9 14 0  -9 16 0  -8.000980670427117 15.9998094350384 0  -7.001979880727125 15.99961182661785 0  -6.003017765495625 15.9994000069065 0  -5.004117759054837 15.99916667955988 0  -4.004156462176925 15.99974291695934 0  -3.004119858242382 16.0003161092579 0  -2.002686423914495 16.00024290111876 0  -1.001309420764444 16.00019821104712 0  4.10145742731218e-05 16.00018106100093 0  1.001393133053826 16.0001908093351 0  2.002775208647106 16.00022746474835 0  3.004217324612505 16.00029154405388 0  4.004258820654049 15.99971943836792 0  5.004222891709182 15.99914687551911 0  6.003094340125092 15.99938650409651 0  7.002029730474564 15.99960330125114 0  8.001005221089294 15.99980529015457 0  9 16 0  -9 18 0  -8.001204174730375 17.99985660464608 0  -7.002438098060755 17.99970926905807 0  -6.003733062791783 17.99955412191519 0  -5.005123453745173 17.99938745267889 0  -4.005182265433541 17.99974535803786 0  -3.005125665041149 18.00010279121313 0  -2.003332319000395 18.00005504256329 0  -1.001625656439417 18.00002387174693 0  3.922019414057299e-05 18.0000089883995 0  1.001705042909428 18.00001001767036 0  2.003414485028144 18.00002652259705 0  3.005212239330056 18.00005792016678 0  4.005272316322531 17.99970646828419 0  5.005215317702572 17.99935604138166 0  6.00380067537728 17.99953195779023 0  7.002482535979437 17.99969512130591 0  8.001226198318797 17.99984971142751 0  9 18 0  -9 20 0  -8.001308253649025 19.99991952808157 0  -7.002651297920102 19.99983796901011 0  -6.00406525555739 19.99975435033097 0  -5.005588917494639 19.99966792867203 0  -4.005656207723985 19.99974559298719 0  -3.005589883403388 19.9998227661475 0  -2.003633115733739 19.99980108640244 0  -1.001775527858591 19.99978460288079 0  3.36043275833504e-05 19.99977348456099 0  1.001843171495172 19.99976753519519 0  2.003702036704595 19.99976620582865 0  3.005660847235916 19.99976856285371 0  4.00572841584331 19.99969985325847 0  5.00566188664416 19.99963187059544 0  6.004119483953542 19.99972845367613 0  7.002687203403791 19.99982125003478 0  8.001326130410085 19.99991133180169 0  8.999999999990541 19.99999999999678 0  -9 22 0  -8.001272771771418 21.9999867919072 0  -7.002579997251028 21.99997490549069 0  -6.003957214048775 21.99996579225395 0  -5.005442124209469 21.99996116601704 0  -4.005508073446996 21.99974302557705 0  -3.005442652048532 21.99952437154332 0  -2.003538850209868 21.99952641739774 0  -1.001732358961872 21.99952395148117 0  2.624292471491093e-05 21.99951738290012 0  1.001784877652516 21.99950664455393 0  2.00359144582159 21.99949120204304 0  3.005495304827553 21.9994700446952 0  4.005560286539071 21.99969759934246 0  5.005494037519837 21.99992561013477 0  6.003996345817074 21.99994009206446 0  7.002606166159429 21.99995822918857 0  8.001285877043445 21.99997859063693 0  9 22 0  -9 24 0  -8.001099066502338 24.0000487692493 0  -7.002227866457823 24.00010074871127 0  -6.003416960694189 24.00015928270939 0  -5.00469854320369 24.00022799003644 0  -4.004755387393607 23.99973801306311 0  -3.004699211283941 23.99924760190178 0  -2.003056949534857 23.99926973208746 0  -1.001498375047815 23.99927965064627 0  1.87867474739596e-05 23.99927789927942 0  1.001535669209036 23.99926450466061 0  2.003093386611108 23.99923898198325 0  3.004734155355973 23.9992003311211 0  4.00478853888115 23.99969873945204 0  5.004730634558661 24.00019745375345 0  6.003441758165394 24.00013710125444 0  7.002244733333399 24.00008630432417 0  8.001107597017144 24.00004165016715 0  9 24 0  -9 26 0  -8.000805973567727 26.00009791401452 0  -7.001633638960459 26.00020037813107 0  -6.002505266447521 26.00031207878285 0  -5.003444211542483 26.00043798156931 0  -4.00348605454647 25.99973103724352 0  -3.003445446129925 25.99902377390763 0  -2.002241853458651 25.99906174313238 0  -1.001099441622984 25.99908188429871 0  1.251348601837986e-05 25.99908484122878 0  1.001123959684561 25.99907072517238 0  2.002264825526287 25.99903911555298 0  3.003465776383921 25.99898905813713 0  4.003503620661964 25.99970232086719 0  5.003460168606073 26.00041575958357 0  6.002518368003252 26.00029588986874 0  7.001642899946654 26.00018981290173 0  8.000810757402899 26.00009269952338 0  9 26 0  -9 28 0  -8.000425574936344 28.00012886789418 0  -7.000862580759646 28.00026306673923 0  -6.001322765740626 28.00040806558531 0  -5.001818411786251 28.00056961278399 0  -4.001841260790783 27.99972279508992 0  -3.001820430678535 27.99887582407422 0  -2.001183548105683 27.9989249144522 0  -1.000579366537663 27.99895269998426 0  8.343759473698384e-06 27.99895991664446 0  1.00059540005173 27.9989467572643 0  2.001197598487109 27.99891287168568 0  3.001831103027098 27.99885736573157 0  4.001848584863373 27.99970758787478 0  5.001823804450655 28.0005579061221 0  6.001328204499456 28.00039952002193 0  7.000866857460474 28.00025748106875 0  8.000427904658691
[...]
<PointData  Scalars="f_44-1"> 
<DataArray  type="Float64"  Name="f_44-1"  format="ascii">1.1316994982637962e-03  9.7666290925828915e-05  6.5387504939198380e-05  1.5740499012127705e-04  -1.3782168530552688e-03  0.0000000000000000e+00  0.0000000000000000e+00  0.0000000000000000e+00  0.0000000000000000e+00  0.0000000000000000e+00  0.0000000000000000e+00  0.0000000000000000e+00  0.0000000000000000e+00  0.0000000000000000e+00  1.1499603811723886e-03  9.7575440934137930e-05  6.6018766748669917e-05  1.5652874314821179e-04  -1.4075140255026869e-03  5.5376513602544968e-02  5.5431226136909574e-02  5.5403173595975477e-02  5.5256898656660274e-02  5.5182125395572372e-02  0.0000000000000000e+00  0.0000000000000000e+00  0.0000000000000000e+00  0.0000000000000000e+00  0.0000000000000000e+00  0.0000000000000000e+00  0.0000000000000000e+00  0.0000000000000000e+00  0.0000000000000000e+00  5.5557426939111032e-02  5.5612010242802219e-02  5.5582490301232620e-02  5.5433937145328308e-02  5.5359443713070354e-02  1.1080026207829582e-01  1.1079574910394459e-01  1.1076410641271518e-01  1.1075168501974869e-01  1.1076902056168619e-01  0.0000000000000000e+00  0.0000000000000000e+00  0.0000000000000000e+00  0.0000000000000000e+00  0.0000000000000000e+00  0.0000000000000000e+00  0.0000000000000000e+00  0.0000000000000000e+00  0.0000000000000000e+00  1.1115215447575093e-01  1.1114805468055552e-01  1.1111750171941480e-01  1.1110803835854399e-01  1.1113258906689660e-01  1.6619659200847872e-01  1.6619123318236786e-01  1.6618548695823310e-01  1.6617795350481737e-01  1.6615682029249784e-01  0.0000000000000000e+00  0.0000000000000000e+00  0.0000000000000000e+00  0.0000000000000000e+00  0.0000000000000000e+00  0.0000000000000000e+00  0.0000000000000000e+00  0.0000000000000000e+00  0.0000000000000000e+00  1.6673448837529120e-01  1.6671173091163885e-01  1.6670121582429670e-01  1.6669756830722243e-01  1.6669337061246756e-01  2.2162563360393814e-01  2.2161903735115770e-01  2.2160995168363304e-01  2.2158115658710531e-01  2.2155466607636923e-01  0.0000000000000000e+00  0.0000000000000000e+00  0.0000000000000000e+00  0.0000000000000000e+00  0.0000000000000000e+00  0.0000000000000000e+00  0.0000000000000000e+00  0.0000000000000000e+00  0.0000000000000000e+00  2.2227827688268395e-01  2.2226860358595682e-01  2.2225550408924555e-01  2.2225141579002128e-01  2.2225205642294085e-01  2.7706464447798418e-01  2.7705551794360539e-01  2.7705323331494525e-01  2.7707294844106406e-01  2.7715568068035901e-01  0.0000000000000000e+00  8.5486054767421937e-01  8.5478639475875517e-01  8.5495161980080092e-01  8.5498776965507128e-01  8.5496506857393606e-01  8.5479972029019002e-01  8.5411364136955159e-01  0.0000000000000000e+00  2.7779659336395884e-01  2.7777924383455088e-01  2.7777332146019268e-01  2.7778267207803292e-01  2.7778982376944777e-01  3.3250294905064331e-01  3.3248366810635077e-01  3.3245312646574188e-01  3.3241423024150546e-01  3.3232656348838902e-01  0.0000000000000000e+00  8.5505427939091394e-01  8.5511078455023504e-01  8.5513383460865855e-01  8.5511647916993982e-01  8.5510394787444610e-01  8.5508466305595232e-01  8.5520186223013683e-01  0.0000000000000000e+00  3.3313143957264790e-01  3.3319127922805453e-01  3.3327004831865847e-01  3.3331903276995978e-01  3.3333895111323425e-01  3.8800560837003861e-01  3.8797294262412979e-01  3.8790049467057336e-01  3.8778603306823123e-01  3.8761866385356569e-01  0.0000000000000000e+00  8.5563824357957641e-01  8.5545615297776489e-01  8.5532989892428402e-01  8.5528134811464196e-01  8.5529064051079307e-01  8.5535272996256395e-01  8.5547250537164832e-01  0.0000000000000000e+00  3.8850272826581134e-01  3.8870842670157879e-01  3.8886176260078265e-01  3.8895364623903494e-01  3.8898772595699294e-01  4.4367672784833662e-01  4.4363203494402614e-01  4.4352014175137200e-01  4.4333737342041485e-01  4.4306667458890819e-01  0.0000000000000000e+00  8.5570418895257794e-01  8.5545827416208842e-01  8.5530299547027988e-01  8.5523929121606090e-01  8.5526396679749361e-01  8.5537691856547993e-01  8.5559242150423287e-01  0.0000000000000000e+00  4.4416970694573193e-01  4.4446185591675069e-01  4.4467530984887504e-01  4.4480344597150218e-01  4.4484894646817141e-01  4.9961710633790890e-01  4.9956465189385563e-01  4.9942557059147324e-01  4.9919589528998071e-01  4.9886105679138620e-01  0.0000000000000000e+00  8.5541460288565230e-01  8.5510180776880618e-01  8.5490957370687748e-01  8.5483541070542035e-01  8.5487730521112415e-01  8.5503557522520834e-01  8.5532330364849485e-01  0.0000000000000000e+00  5.0023853768933679e-01  5.0057603038652387e-01  5.0081724875993716e-01  5.0096301788636377e-01  5.0101429816980581e-01  5.5589776960711801e-01  5.5584317560048069e-01  5.5569344752240379e-01  5.5544522262823803e-01  5.5508642301524802e-01  0.0000000000000000e+00  8.5459813519153638e-01  8.5425538981117399e-01  8.5404975871653954e-01  8.5397377190663359e-01  8.5402637655847402e-01  8.5420874283900827e-01  8.5453010631667015e-01  0.0000000000000000e+00  5.5674297713799559e-01  5.5708993570530940e-01  5.5733421371813352e-01  5.5748177086025241e-01  5.5753338231048599e-01  6.1254830183567843e-01  6.1249745355025287e-01  6.1235447551763356e-01  6.1211681031501408e-01  6.1177521442262983e-01  0.0000000000000000e+00  8.5320659235460217e-01  8.5287166373078804e-01  8.5267433239114443e-01  8.5260348152916288e-01  8.5265888370424803e-01  8.5284218578717474e-01  8.5315896062657703e-01  0.0000000000000000e+00  6.1369802918338889e-01  6.1401431927635419e-01  6.1423387164773269e-01  6.1436661762638500e-01  6.1441277286364615e-01  6.6955437495998749e-01  6.6951266162182455e-01  6.6939260125227429e-01  6.6919252350572678e-01  6.6890644799446730e-01  0.0000000000000000e+00  8.5125195600495163e-01  8.5096151233781325e-01  8.5079325454882881e-01  8.5073397674224960e-01  8.5078413432960553e-01  8.5094561255096957e-01  8.5121997753871381e-01  0.0000000000000000e+00  6.7106041186626064e-01  6.7131000059111168e-01  6.7148014629517017e-01  6.7158323454342161e-01  6.7161878297751276e-01  7.2686080247883422e-01  7.2683252348809524e-01  7.2674864863561950e-01  7.2660835562414161e-01  7.2640919409009563e-01  0.0000000000000000e+00  8.4881006431533346e-01  8.4859570297233033e-01  8.4847424740593580e-01  8.4843189517457029e-01  8.4846971117560688e-01  8.4858963304108403e-01  8.4878923089419278e-01  0.0000000000000000e+00  7.2874154934182056e-01  7.2889588152603768e-01  7.2899740539145375e-01  7.2905928720831581e-01  7.2908025783749641e-01  7.8437873815715009e-01  7.8436665537540073e-01  7.8432800085987886e-01  7.8426265389954131e-01  7.8417171439090505e-01  0.0000000000000000e+00  8.4601241635534308e-01  8.4589699095550719e-01  8.4583483369847445e-01  8.4581299972272639e-01  8.4583307320503576e-01  8.4589687986584494e-01  8.4599827848214160e-01  0.0000000000000000e+00  7.8661693560508017e-01  7.8665787216069649e-01  7.8667897015693178e-01  7.8669259301255268e-01  7.8669662265763307e-01  8.4199619377212354e-01  8.4200125270864901e-01  8.4201173273271879e-01  8.4202798773966459e-01  8.4205440486586458e-01  0.0000000000000000e+00  8.4303026099740186e-01  8.4302546752568330e-01  8.4302850911048488e-01  8.4302859846516365e-01  8.4302771096643947e-01  8.4302743221668208e-01  8.4301847749973358e-01  0.0000000000000000e+00  8.4453917768330755e-01  8.4446097294697742e-01  8.4439859645625737e-01  8.4436218813445807e-01  8.4434877472776360e-01  8.9959079668014064e-01  8.9961203510037513e-01  8.9967006426669527e-01  8.9976543729225578e-01  8.9990526490880152e-01  0.0000000000000000e+00  8.4005514355497235e-01  8.4016032576405508e-01  8.4022720555266095e-01  8.4024821294147589e-01  8.4022555979287661e-01  8.4016048606535032e-01  8.4004142218306155e-01  0.0000000000000000e+00  9.0235379953909378e-01  9.0216384471376521e-01  9.0202415005424486e-01  9.0194146856782598e-01  9.0191203363035144e-01  9.5704354471852648e-01  9.5707819856411214e-01  9.5717687101298765e-01  9.5734002778255378e-01  9.5757664060483372e-01  0.0000000000000000e+00  8.3727752218557794e-01  8.3747976591308981e-01  8.3760196182653812e-01  8.3764050921285138e-01  8.3759766835620220e-01  8.3747425304812051e-01  8.3725754769882843e-01  0.0000000000000000e+00  9.5991598139582290e-01  9.5963424083343485e-01  9.5943212206057005e-01  9.5931215138941717e-01  9.5926990728896544e-01  1.0142521675531440e+00  1.0142959730277736e+00  1.0144238048566314e+00  1.0146357898541998e+00  1.0149416256304880e+00  0.0000000000000000e+00  8.3486573976073930e-01  8.3514122191551776e-01  8.3530388205961315e-01  8.3535448657465317e-01  8.3529515059630410e-01  8.3512618246863790e-01  8.3483508199647072e-01  0.0000000000000000e+00  1.0171067961795277e+00  1.0167639060548230e+00  1.0165215890846104e+00  1.0163776633275741e+00  1.0163272858910699e+00  1.0711426482791644e+00  1.0711903257324245e+00  1.0713325659503310e+00  1.0715689875760277e+00  1.0719085884365531e+00  0.0000000000000000e+00  8.3294741820575657e-01  8.3326384721793756e-01  8.3344727414135134e-01  8.3350285561410042e-01  8.3343236548252253e-01  8.3323552611316298e-01  8.3290156678988314e-01  0.0000000000000000e+00  1.0738472420849272e+00  1.0734813703790482e+00  1.0732261207424774e+00  1.0730745084601345e+00  1.0730216115743518e+00  1.1276774207219606e+00  1.1277233827345872e+00  1.1278638190730845e+00  1.1280977681832727e+00  1.1284318722854214e+00  0.0000000000000000e+00  8.3159497371035762e-01  8.3191497989969698e-01  8.3209672893639886e-01  8.3214933484901865e-01  8.3207401297394812e-01  8.3186972774063517e-01  8.3152909735708391e-01  0.0000000000000000e+00  1.1301086117689996e+00  1.1297612074942383e+00  1.1295222287116946e+00  1.1293802524126335e+00  1.1293307288567629e+00  1.1838595953450790e+00  1.1838985286561883e+00  1.1840212894162956e+00  1.1842263065034779e+00  1.1845163613896983e+00  0.0000000000000000e+00  8.3081610547553952e-01  8.3110213716991121e-01  8.3125950379443891e-01  8.3130132869334583e-01  8.3122793313782506e-01  8.3103736855504540e-01  8.3072710959791185e-01  0.0000000000000000e+00  1.1859178906712342e+00  1.1856283780954082e+00  1.1854330590833893e+00  1.1853168618796310e+00  1.1852760621513312e+00  1.2397303578076309e+00  1.2397588699864721e+00  1.2398523819982921e+00  1.2400102823679371e+00  1.2402276114162007e+00  0.0000000000000000e+00  8.3055634557250491e-01  8.3077037130552989e-01  8.3088250022609922e-01  8.3090712560191182e-01  8.3084416936904337e-01  8.3069046624967102e-01  8.3044683199343616e-01  0.0000000000000000e+00  1.2413562553252244e+00  1.2411560564485915e+00  1.2410265277201920e+00  1.2409485665011439e+00  1.2409203736557459e+00  1.2953632795721266e+00  1.2953786708635400e+00  1.2954318600106771e+00  1.2955253740992991e+00  1.2956494601819908e+00  0.0000000000000000e+00  8.3068157272096277e-01  8.3080025225731091e-01  8.3086187497640285e-01  8.3087112991828338e-01  8.3082287291285317e-01  8.3069743452063960e-01  8.3051706485614507e-01  0.0000000000000000e+00  1.2965439489939707e+00  1.2964614857928818e+00  1.2964076240126212e+00  1.2963732799758043e+00  1.2963590203528321e+00  1.3508583824353082e+00  1.3508619303210327e+00  1.3508771023437824e+00  1.3509001890984080e+00  1.3508835720993855e+00  0.0000000000000000e+00  8.3095462712218893e-01  8.3107139079430947e-01  8.3105224005508305e-01  8.3103986013298503e-01  8.3102263269712140e-01  8.3104563331902537e-01  8.3110148552647467e-01  0.0000000000000000e+00  1.3517040457182665e+00  1.3516863221456727e+00  1.3517017133354137e+00  1.3517051978465797e+00  1.3517025757466821e+00  1.4063194668707120e+00  1.4063152097294498e+00  1.4063009573902630e+00  1.4062594439094935e+00  1.4062002259893893e+00  0.0000000000000000e+00  8.3204139218422546e-01  8.3135774584043098e-01  8.3119434997332597e-01  8.3117188466837955e-01  8.3120750844244340e-01  8.3137048067121444e-01  8.3129751490710713e-01  0.0000000000000000e+00  1.4068385056465471e+00  1.4069701447070138e+00  1.4070244664928131e+00  1.4070456536416562e+00  1.4070483654714845e+00  1.4618153088937038e+00  1.4618104301952424e+00  1.4617940857281992e+00  1.4617653694704142e+00  1.4617404696014118e+00  0.0000000000000000e+00  0.0000000000000000e+00  0.0000000000000000e+00  0.0000000000000000e+00  0.0000000000000000e+00  0.0000000000000000e+00  0.0000000000000000e+00  0.0000000000000000e+00  0.0000000000000000e+00  1.4624451663953772e+00  1.4624403216191337e+00  1.4624359492456602e+00  1.4624421429851915e+00  1.4624431256805814e+00  1.5173603334686285e+00  1.5173482052128211e+00  1.5173404392559806e+00  1.5173259580841667e+00  1.5172976128951252e+00  0.0000000000000000e+00  0.0000000000000000e+00  0.0000000000000000e+00  0.0000000000000000e+00  0.0000000000000000e+00  0.0000000000000000e+00  0.0000000000000000e+00  0.0000000000000000e+00  0.0000000000000000e+00  1.5178902988111243e+00  1.5178661866903573e+00  1.5178632231153206e+00  1.5178629217756645e+00  1.5178592175124119e+00  1.5728959886210936e+00  1.5729255199978234e+00  1.5729238055582642e+00  1.5728868853539633e+00  1.5728792483690111e+00  0.0000000000000000e+00  0.0000000000000000e+00  0.0000000000000000e+00  0.0000000000000000e+00  0.0000000000000000e+00  0.0000000000000000e+00  0.0000000000000000e+00  0.0000000000000000e+00  0.0000000000000000e+00  1.5732655860119253e+00  1.5732876515746044e+00  1.5732842482111105e+00  1.5732488954617865e+00  1.5732441172908400e+00  1.6286358622780137e+00  1.6286150005875359e+00  1.6284857720662760e+00  1.6284858776918669e+00  1.6285783239460103e+00  0.0000000000000000e+00  0.0000000000000000e+00  0.0000000000000000e+00  0.0000000000000000e+00  0.0000000000000000e+00  0.0000000000000000e+00  0.0000000000000000e+00  0.0000000000000000e+00  0.0000000000000000e+00  1.6288236343818716e+00  1.6287977468715114e+00  1.6286700986333147e+00  1.6286702208139774e+00  1.6287603353653626e+00  1.6856862960113110e+00  1.6838721084760901e+00  1.6839299638184360e+00  1.6839283067211368e+00  1.6827978854340360e+00  0.0000000000000000e+00  0.0000000000000000e+00  0.0000000000000000e+00  0.0000000000000000e+00  0.0000000000000000e+00  0.0000000000000000e+00  0.0000000000000000e+00  0.0000000000000000e+00  0.0000000000000000e+00  1.6856440390485978e+00  1.6838735904132944e+00  1.6839311800469461e+00  1.6839279820534196e+00  1.6828225950363729e+00  </DataArray> 
</PointData> 
</Piece>
</UnstructuredGrid>
</VTKFile>