<?xml version="1.0"?>
<VTKFile type="UnstructuredGrid"  version="0.1"  >
<UnstructuredGrid>
<Piece  NumberOfPoints="589" NumberOfCells="1080">
<Points>
<DataArray  type="Float64"  NumberOfComponents="3"  format="ascii">-9 0 0  -8 0 0  -7 0 0  -6 0 0  -5 0 0  -4 0 0  -3 0 0  -2 0 0  -1 0 0  0 0 0  1 0 0  2 0 0  3 0 0  4 0 0  5 0 0  6 0 0  7 0 0  8 0 0  9 0 0  -9 2 0  -8.000006645157125 1.999989496920002 0  -7.00001395854348 1.999980331055047 0  -6.000023542645604 1.999973593604809 0  -5.000039085640071 1.999969779334056 0  -4.000022638129769 1.999977257213917 0  -3.000005752366615 1.999984589464448 0  -1.999997622990846 1.999991571234463 0  -0.9999964979492806 1.999997085615349 0  2.667768964332157e-07 1.999999467600415 0  0.9999967768087727 1.999997681421589 0  1.999997042673705 1.999992117261933 0  3.000003777376174 1.999985280022096 0  4.000017872196326 1.999977881345889 0  5.000038442042684 1.999974569961159 0  6.000023385874167 1.999975746101384 0  7.000013993624076 1.99998133679276 0  8.000006705068978 1.999989909186263 0  9 2 0  -9.000000000004983 4 0  -8.000010617269172 3.999973645619279 0  -7.000018834277821 3.99995094892272 0  -6.000023249661549 3.999935494750709 0  -5.000024165447828 3.999930703890306 0  -3.999999864453735 3.999934118115224 0  -2.999983636318504 3.999955094968488 0  -1.999979613168936 3.999982489861269 0  -0.9999861839384032 4.000004535036837 0  1.496597068587055e-06 4.000013316729662 0  0.9999889638584377 4.000006047473723 0  1.999981689132758 3.999986750600806 0  2.999985168771276 3.999960617776136 0  4.000001104651608 3.999934150225607 0  5.000025498722467 3.99992467604437 0  6.000024115910463 3.999933834483385 0  7.000019572261211 3.999950747542091 0  8.000011075882162 3.99997374547906 0  9 4 0  -9 6 0  -8.000024189612247 5.999943166808331 0  -7.000038916451725 5.999892599694313 0  -6.000036955013889 5.999854745580031 0  -5.000016219570249 5.999835800453972 0  -3.999968310159272 5.999866893782873 0  -2.999946585602693 5.999932260130858 0  -1.999955321023094 6.00000087948825 0  -0.9999770226863947 6.000039090911225 0  9.075752105033858e-07 6.000046645241973 0  0.9999809496167092 6.000033933946288 0  1.999965670025249 5.99999894986519 0  2.999959925999261 5.999939840891378 0  3.999971460498278 5.999878368370382 0  5.000013036089331 5.999847408688597 0  6.000037489254884 5.999860907293579 0  7.000040960859757 5.999895822137415 0  8.000025763309296 5.999944558635122 0  9 6 0  -9 8 0  -8.000075603698464 7.999887638744116 0  -7.000125745932396 7.999783414711604 0  -6.000125752771282 7.999698376625767 0  -5.000054478826231 7.999650728019313 0  -3.999961562234944 7.999795183606849 0  -2.99997831594686 7.999965137260404 0  -2.0000129386184 8.000048255330473 0  -1.000015908730146 8.000058088871837 0  4.69884983442459e-06 8.000061021548076 0  1.000019884558387 8.000069466348934 0  2.000012977041195 8.000033926522423 0  2.999971683705279 7.999973544802241 0  3.999957497886371 7.999824416053249 0  5.0000500491958 7.999656149652966 0  6.000134776980875 7.999702338197806 0  7.00013701226954 7.999785627834631 0  8.00008270185119 7.999888565756125 0  9 8 0  -9 10 0  -8.000228787651741 9.99979962305077 0  -7.000413034561379 9.999597580679845 0  -6.000499594841553 9.999392606654231 0  -5.000414425173506 9.999184383817367 0  -4.000267198887927 9.999650706896997 0  -3.000290597091631 10.00005190702355 0  -2.000230709574684 9.999983885208781 0  -1.000101463624278 9.999962053325191 0  -5.887565288226816e-06 9.999956704286809 0  1.000089225592741 9.999956986982269 0  2.000216395915003 9.999953958664237 0  3.000327561509151 10.00010051370976 0  4.000312640625193 9.999711268857903 0  5.000483390284714 9.999197698913145 0  6.000561865837669 9.999395495593578 0  7.000459139485149 9.999596913646485 0  8.000253135877227 9.999798634070059 0  9 10 0  -9 12 0  -8.000559782534964 11.99971839977992 0  -7.001090494113499 11.99942369393192 0  -6.001559243685925 11.99910021688922 0  -5.001925167378691 11.99872614187932 0  -4.001849741530934 11.9995759584455 0  -3.001916827028183 12.00041715116391 0  -2.001303275191439 12.00031751991733 0  -1.000622501655495 12.00026469307516 0  8.315972528536969e-05 12.00025646038325 0  1.00079456043857 12.00029477235931 0  2.001495161721129 12.00039018197495 0  3.002152137829589 12.00056890203747 0  4.002077146377653 11.99963247622634 0  5.002127691773523 11.99868814414389 0  6.0017129243981 11.99907447105359 0  7.001193955807855 11.99940717629034 0  8.000611841798648 11.99971023583999 0  9 12 0  -9 14 0  -8.001006335382005 13.99968974669989 0  -7.002014638488331 13.99936514772907 0  -6.003028204520811 13.99901059282419 0  -5.004053741161957 13.9986079901321 0  -4.004064239726004 13.9996001990792 0  -3.004069404888205 14.00060482416586 0  -2.002646100713851 14.00046420962543 0  -1.001243671643077 14.00038919816656 0  0.0001494665910901395 14.00037026409001 0  1.001544228766924 14.00040444954531 0  2.002950545848473 14.00049357196566 0  3.004375901182958 14.00064241766138 0  4.004385665001438 13.99959576073758 0  5.004393748277463 13.99855531655466 0  6.003278944181863 13.99896853766759 0  7.00218027237162 13.99933638395931 0  8.001088783398162 13.99967521808699 0  9 14 0  -9 16 0  -8.001444028180936 15.99971857453175 0  -7.002916099637071 15.99942663375592 0  -6.00444665350196 15.99911347416024 0  -5.006071014781146 15.99876818304029 0  -4.006129191221929 15.99961200480059 0  -3.006073300459069 16.00045119333049 0  -2.003908012187619 16.00034929617863 0  -1.001828787933191 16.00029004804452 0  0.0002093686860991274 16.000272183914 0  1.002248955276274 16.00029496742462 0  2.004332426472086 16.00035865935408 0  3.006504896054301 16.00046430250578 0  4.006566313528519 15.99956854665374 0  5.006513026123593 15.9986719667549 0  6.004777306022699 15.9990445220555 0  7.0031359571635 15.99938193302093 0  8.001553765469614 15.99969656399532 0  9 16 0  -9 18 0  -8.001768501009558 17.99978948953481 0  -7.003581762449324 17.99957309958858 0  -6.005486858125894 17.99934505097611 0  -5.007535466755457 17.99909978840612 0  -4.007623546856676 17.99961414162249 0  -3.007537732236429 18.00012766102848 0  -2.004829001236776 18.00006446160296 0  -1.002251173066418 18.00002606139635 0  0.0002635353910135651 18.00001220636002 0  1.002779631816283 18.00002253188946 0  2.00536153468744 18.00005659636811 0  3.008076727104743 18.00011375518871 0  4.008167186042718 17.99954811877529 0  5.008081390699902 17.99898392619157 0  6.005894590737823 17.99926135659268 0  7.003852751133254 17.9995187703764 0  8.001903744942132 17.99976275260146 0  9 18 0  -9 20 0  -8.001912965673585 19.9998839072454 0  -7.003878168831717 19.99976622773765 0  -6.00594984257398 19.99964554483551 0  -5.008186212996396 19.99952077601575 0  -4.00828684500327 19.99961343693308 0  -3.008186588010908 19.9997051773867 0  -2.005230166331395 19.99968093094992 0  -1.002422860204395 19.9996644106731 0  0.000312112810115416 19.99965602391609 0  1.003048772816567 19.99965564299638 0  2.005861129698284 19.99966262419187 0  3.008825948791788 19.99967575997492 0  4.008928639563046 19.99953785322927 0  5.008827668914503 19.9994008956891 0  6.006428322945242 19.99955833848367 0  7.00419592013649 19.99970937453405 0  8.002071472917697 19.9998558653366 0  8.999999999985988 19.99999999999585 0  -9 22 0  -8.001847581150694 21.99998465580809 0  -7.003746774132474 21.99997136943266 0  -6.005750822246264 21.99996239276238 0  -5.007916217469536 21.99996037055092 0  -4.008014755513043 21.99960870872455 0  -3.00791616815955 21.99925602744382 0  -2.005038733007461 21.99926666610805 0  -1.002307023476522 21.99927041246522 0  0.000353963416904107 21.99926800609583 0  1.003016977162671 21.99925948142558 0  2.005754782002161 21.99924418110519 0  3.008642428870572 21.99922074283829 0  4.008741862403682 21.99953450271638 0  5.00864051182668 21.99984873748006 0  6.006290708226465 21.99988093673662 0  7.004105114260765 21.99991813962617 0  8.002026274256027 21.99995836296467 0  9 22 0  -9 24 0  -8.001574814157248 24.00007717737317 0  -7.003193982071735 24.00015927725594 0  -6.004903122635052 24.00025142411557 0  -5.006750304177883 24.00035916088154 0  -4.006835127635416 23.99960016042367 0  -3.006750932010303 23.99884021831482 0  -2.004268169562884 23.99887982191366 0  -1.001910030313353 23.99890088620281 0  0.0003878108912123681 23.99890432238943 0  1.002687971447844 23.99889027427973 0  2.005053095029826 23.99885812180196 0  3.007547588821815 23.99880647564056 0  4.007631324676668 23.99953629409026 0  5.007541831155298 24.00026631199673 0  6.005492833091234 24.00018349302131 0  7.003585253649081 24.00011480111569 0  8.001769885191891 24.00005518296024 0  9 24 0  -9 26 0  -8.00112355641418 26.00015003192516 0  -7.00227918097417 26.00030701411127 0  -6.003499838960527 26.00047810408462 0  -5.004820115869125 26.00067088884208 0  -4.004882331877579 25.99958831286682 0  -3.004822153593202 25.99850497089661 0  -2.003002761927139 25.99856679092026 0  -1.001273497246041 25.9986015303104 0  0.0004125413606307145 25.9986102309958 0  1.002101104133458 25.99859313211184 0  2.003837968288462 25.99854967088119 0  3.005670126870676 25.99847848041723 0  4.00572888151826 25.99954155551434 0  5.005660633652465 26.00060462298805 0  6.004125901076917 26.00042953285013 0  7.002694500525338 26.00027516972197 0  8.00133059498433 26.00013427032371 0  9 26 0  -9 28 0  -8.000542766659388 28.00019511090718 0  -7.001101958037622 28.00039833937737 0  -6.001694506765663 28.0006180148605 0  -5.002338121664154 28.00086289706229 0  -4.002371632229588 27.99957422344966 0  -3.002341809028011 27.99828507808719 0  -2.001380427501489 27.99836171712582 0  -1.000465689607067 27.99840596036133 0  0.0004273371272772233 27.99841896420987 0  1.001322990125352 27.99840105785352 0  2.002245634416583 27.99835174429886 0  3.003220286068019 27.99826969883432 0  4.003248071204314 27.99954909507874 0  5.003207701793215 28.00082839395993 0  6.002342177494394 28.00059268006463 0  7.00153159627493 28.00038170702145 0  8.00
[...]
<PointData  Scalars="f_44-1"> 
<DataArray  type="Float64"  Name="f_44-1"  format="ascii">1.1922549427715275e-03  -2.9850332040255143e-06  4.2371280444869460e-05  -1.2656457967875286e-05  -7.9658707149255750e-04  0.0000000000000000e+00  0.0000000000000000e+00  0.0000000000000000e+00  0.0000000000000000e+00  0.0000000000000000e+00  0.0000000000000000e+00  0.0000000000000000e+00  0.0000000000000000e+00  0.0000000000000000e+00  1.1919537199862446e-03  2.5165678013727904e-06  4.7228183781540688e-05  -1.9569388190199995e-05  -7.9828544368549972e-04  7.5616181253882100e-02  7.5626282498338845e-02  7.5442523433872546e-02  7.5184274349734695e-02  7.5076697538633108e-02  0.0000000000000000e+00  0.0000000000000000e+00  0.0000000000000000e+00  0.0000000000000000e+00  0.0000000000000000e+00  0.0000000000000000e+00  0.0000000000000000e+00  0.0000000000000000e+00  0.0000000000000000e+00  7.5369766598701246e-02  7.5367200714006960e-02  7.5173021115184341e-02  7.4916326129922689e-02  7.4808324321419373e-02  1.5085947849976411e-01  1.5083576472574980e-01  1.5078844986288278e-01  1.5074775904871185e-01  1.5077141746642692e-01  0.0000000000000000e+00  0.0000000000000000e+00  0.0000000000000000e+00  0.0000000000000000e+00  0.0000000000000000e+00  0.0000000000000000e+00  0.0000000000000000e+00  0.0000000000000000e+00  0.0000000000000000e+00  1.5032076200451358e-01  1.5033294347761583e-01  1.5031296958503390e-01  1.5027201910554017e-01  1.5027886375356850e-01  2.2623066966324051e-01  2.2623862634657591e-01  2.2626326792652346e-01  2.2629546633428296e-01  2.2630141795890574e-01  0.0000000000000000e+00  0.0000000000000000e+00  0.0000000000000000e+00  0.0000000000000000e+00  0.0000000000000000e+00  0.0000000000000000e+00  0.0000000000000000e+00  0.0000000000000000e+00  0.0000000000000000e+00  2.2547610628890752e-01  2.2547066540911856e-01  2.2547929782514811e-01  2.2548892575443430e-01  2.2549708093599902e-01  3.0162668572339441e-01  3.0161327201926019e-01  3.0155075848865132e-01  3.0141784152094969e-01  3.0133662904911429e-01  0.0000000000000000e+00  0.0000000000000000e+00  0.0000000000000000e+00  0.0000000000000000e+00  0.0000000000000000e+00  0.0000000000000000e+00  0.0000000000000000e+00  0.0000000000000000e+00  0.0000000000000000e+00  3.0054006035828518e-01  3.0063776696734473e-01  3.0068326012917546e-01  3.0070746581131125e-01  3.0072157241366493e-01  3.7713385142247108e-01  3.7712460846046580e-01  3.7708904307494445e-01  3.7707426687927542e-01  3.7704433604920434e-01  0.0000000000000000e+00  1.2007550929781488e+00  1.2006262122543150e+00  1.2005541717093493e+00  1.2004754066035122e+00  1.2005670167137745e+00  1.2007215246926002e+00  1.2003520465900188e+00  0.0000000000000000e+00  3.7589664408349927e-01  3.7594077301981033e-01  3.7595633557669172e-01  3.7598120404182278e-01  3.7599585790771817e-01  4.5275021504401536e-01  4.5273575087750428e-01  4.5267099623194873e-01  4.5257553679168111e-01  4.5236399664705329e-01  0.0000000000000000e+00  1.2006356565855894e+00  1.2003993470643528e+00  1.2002594703770371e+00  1.2002123489470102e+00  1.2002843908596337e+00  1.2004181424430862e+00  1.2007732261776380e+00  0.0000000000000000e+00  4.5102503773639868e-01  4.5117445495276143e-01  4.5128112559596634e-01  4.5133609577526790e-01  4.5135595607764201e-01  5.2858371884368482e-01  5.2855959068793956e-01  5.2843886011484553e-01  5.2823108907256477e-01  5.2787606874134485e-01  0.0000000000000000e+00  1.2002012616944482e+00  1.1998122467405599e+00  1.1995649718744610e+00  1.1994945047294241e+00  1.1995864202342170e+00  1.1998406477439123e+00  1.2002411310000560e+00  0.0000000000000000e+00  5.2618231105378388e-01  5.2653940008402966e-01  5.2675693994389194e-01  5.2688811890067888e-01  5.2692090418311566e-01  6.0482079037751191e-01  6.0478415594387280e-01  6.0459324667936309e-01  6.0424879786713948e-01  6.0370066661608979e-01  0.0000000000000000e+00  1.1991152126125617e+00  1.1985487895735656e+00  1.1982179587754462e+00  1.1981186327793667e+00  1.1982449712873393e+00  1.1985993094158895e+00  1.1992080088598087e+00  0.0000000000000000e+00  6.0167425144431119e-01  6.0225813700052078e-01  6.0263863204101009e-01  6.0285128664608978e-01  6.0289916434594515e-01  6.8167803420137452e-01  6.8162982601924527e-01  6.8137577710038522e-01  6.8091172697184210e-01  6.8020586175301645e-01  0.0000000000000000e+00  1.1970840157110030e+00  1.1963768147268554e+00  1.1959626405320267e+00  1.1958347413229296e+00  1.1959882403664914e+00  1.1964260458956233e+00  1.1971670991914265e+00  0.0000000000000000e+00  6.7794417526755046e-01  6.7869277020544572e-01  6.7919294361642502e-01  6.7947179704218363e-01  6.7953124229881501e-01  7.5934232082471365e-01  7.5928670358868766e-01  7.5899262839478421e-01  7.5845451007446651e-01  7.5766229149359909e-01  0.0000000000000000e+00  1.1938071952262390e+00  1.1930318886920979e+00  1.1925821323704651e+00  1.1924435147667403e+00  1.1926103826021575e+00  1.1930876301231916e+00  1.1938924271054479e+00  0.0000000000000000e+00  7.5522323189879503e-01  7.5606416227621920e-01  7.5663534713224068e-01  7.5695236690277357e-01  7.5701801124251678e-01  8.3792548412095047e-01  8.3786834637424223e-01  8.3756565207739653e-01  8.3701249301009473e-01  8.3622072114505996e-01  0.0000000000000000e+00  1.1891760432122407e+00  1.1884177107435905e+00  1.1879808392829769e+00  1.1878463214010149e+00  1.1880100886612823e+00  1.1884781666296720e+00  1.1892631740552495e+00  0.0000000000000000e+00  8.3366499083924972e-01  8.3450768288551758e-01  8.3508884589093169e-01  8.3541061036908426e-01  8.3547659807239438e-01  9.1744049387302795e-01  9.1738822859965097e-01  9.1711058000789480e-01  9.1660456268113233e-01  9.1590202732169990e-01  0.0000000000000000e+00  1.1832176585385534e+00  1.1825611902401907e+00  1.1821865724202045e+00  1.1820726743057310e+00  1.1822172219280753e+00  1.1826264379016462e+00  1.1833068751739808e+00  0.0000000000000000e+00  9.1328825688796667e-01  9.1404095022563836e-01  9.1456851882233847e-01  9.1486019722729139e-01  9.1492013486009727e-01  9.9779600249278932e-01  9.9775451791881409e-01  9.9753298204170759e-01  9.9713100062747306e-01  9.9659687500288263e-01  0.0000000000000000e+00  1.1761091013441665e+00  1.1756283823947182e+00  1.1753587813755695e+00  1.1752796005450676e+00  1.1753905801705198e+00  1.1756974978571459e+00  1.1762001980498604e+00  0.0000000000000000e+00  9.9397843879563752e-01  9.9455988712984578e-01  9.9497674151103388e-01  9.9520687970648536e-01  9.9525486131037744e-01  1.0788057663400850e+00  1.0787797161282042e+00  1.0786389532163010e+00  1.0783859019552637e+00  1.0780803521252396e+00  0.0000000000000000e+00  1.1681545508838063e+00  1.1679037348299324e+00  1.1677701666556175e+00  1.1677358913159750e+00  1.1678026551763319e+00  1.1679752282468541e+00  1.1682466724178857e+00  0.0000000000000000e+00  1.0755042517818467e+00  1.0758527428555062e+00  1.0761144938237008e+00  1.0762587396591141e+00  1.0762902173321045e+00  1.1602097888128202e+00  1.1602020476279729e+00  1.1601575722217992e+00  1.1600814925428795e+00  1.1600392059667906e+00  0.0000000000000000e+00  1.1597509807494115e+00  1.1597587181060487e+00  1.1597771301673465e+00  1.1597929490008283e+00  1.1598097063652149e+00  1.1598307277846935e+00  1.1598429130613475e+00  0.0000000000000000e+00  1.1575449620612108e+00  1.1576247757147320e+00  1.1577044400534795e+00  1.1577481052380769e+00  1.1577604415398730e+00  1.2417036889748214e+00  1.2417150060707700e+00  1.2417715664770146e+00  1.2418808443383287e+00  1.2421074745514187e+00  0.0000000000000000e+00  1.1513445176083916e+00  1.1516110826386103e+00  1.1517807330668710e+00  1.1518463052331762e+00  1.1518127402403484e+00  1.1516816187380867e+00  1.1514349467115865e+00  0.0000000000000000e+00  1.2397267302890438e+00  1.2395315815470789e+00  1.2394221626779633e+00  1.2393616313768046e+00  1.2393543623795060e+00  1.3229721962427521e+00  1.3230012797199167e+00  1.3231525395697896e+00  1.3234352972929340e+00  1.3239069787399917e+00  0.0000000000000000e+00  1.1433818067872725e+00  1.1438791829261015e+00  1.1441827820914345e+00  1.1442923189999477e+00  1.1442136345674214e+00  1.1439464079798007e+00  1.1434696032763312e+00  0.0000000000000000e+00  1.3216635298212123e+00  1.3212169240758989e+00  1.3209319008432434e+00  1.3207748505270107e+00  1.3207496742813372e+00  1.4037249962947698e+00  1.4037684069966727e+00  1.4039975209270665e+00  1.4044226303366258e+00  1.4050883298131016e+00  0.0000000000000000e+00  1.1362612221120438e+00  1.1369361128685342e+00  1.1373417085924060e+00  1.1374846170502981e+00  1.1373709845157667e+00  1.1369985967472778e+00  1.1363457095061893e+00  0.0000000000000000e+00  1.4029985398946556e+00  1.4023512488987204e+00  1.4019229795856962e+00  1.4016873733510842e+00  1.4016478959976619e+00  1.4837249362645473e+00  1.4837782238224115e+00  1.4840599683859690e+00  1.4845811093537893e+00  1.4853683495381846e+00  0.0000000000000000e+00  1.1302887069619603e+00  1.1310684183602524e+00  1.1315328717320188e+00  1.1316949220518155e+00  1.1315603901742575e+00  1.1311253585313439e+00  1.1303699750135672e+00  0.0000000000000000e+00  1.4834429859522718e+00  1.4826672762601543e+00  1.4821429636169299e+00  1.4818550518926557e+00  1.4818063227627665e+00  1.5628224149044143e+00  1.5628787352319873e+00  1.5631814508623898e+00  1.5637418521827928e+00  1.5645658320648528e+00  0.0000000000000000e+00  1.1256434252571488e+00  1.1264437829929925e+00  1.1269178305924050e+00  1.1270830677026811e+00  1.1269441052487865e+00  1.1264954541880772e+00  1.1257220765709823e+00  0.0000000000000000e+00  1.5628077910457965e+00  1.5619871189875483e+00  1.5614245972974818e+00  1.5611156971449509e+00  1.5610635718685395e+00  1.6409515462797586e+00  1.6410062291002439e+00  1.6413010903850802e+00  1.6418442532197677e+00  1.6426160955811486e+00  0.0000000000000000e+00  1.1223550676996192e+00  1.1230930155129237e+00  1.1235284493795763e+00  1.1236805518671651e+00  1.1235519731132035e+00  1.1231379534152202e+00  1.1224314588170743e+00  0.0000000000000000e+00  1.6410135115787068e+00  1.6402453610119905e+00  1.6397026756848530e+00  1.6394048486840760e+00  1.6393549166629244e+00  1.7181688357034508e+00  1.7182189534076167e+00  1.7184695458198571e+00  1.7189221586180345e+00  1.7195491501395612e+00  0.0000000000000000e+00  1.1203043527899095e+00  1.1209114471203503e+00  1.1212644222295183e+00  1.1213897117556511e+00  1.1212894891449068e+00  1.1209577595023721e+00  1.1203906553413774e+00  0.0000000000000000e+00  1.7181636392940223e+00  1.7174868086068167e+00  1.7170162281808217e+00  1.7167583489784461e+00  1.7167159457166206e+00  1.7945825141968854e+00  1.7946158087423789e+00  1.7948097777083365e+00  1.7951999956014784e+00  1.7957130223156128e+00  0.0000000000000000e+00  1.1192662584604633e+00  1.1196662660389167e+00  1.1199200410512740e+00  1.1200112291130333e+00  1.1199396353077551e+00  1.1196904092660678e+00  1.1192999664176257e+00  0.0000000000000000e+00  1.7942783021213984e+00  1.7938476067193267e+00  1.7934993695916603e+00  1.7933045919056498e+00  1.7932717715051554e+00  1.8703830364838596e+00  1.8704168203117513e+00  1.8705650305478501e+00  1.8708144993328162e+00  1.8710582494068009e+00  0.0000000000000000e+00  1.1187332111585890e+00  1.1190894514507737e+00  1.1192229260444102e+00  1.1192943197369449e+00  1.1192464153216450e+00  1.1191056963932713e+00  1.1188681796018425e+00  0.0000000000000000e+00  1.8699856104221571e+00  1.8696032351267369e+00  1.8693625649245948e+00  1.8692340514896784e+00  1.8692157288097189e+00  1.9458197565949404e+00  1.9458183737738757e+00  1.9458725899106508e+00  1.9459225630729062e+00  1.9460253068726168e+00  0.0000000000000000e+00  1.1191621795260840e+00  1.1187891300882866e+00  1.1189421594197919e+00  1.1190328629889776e+00  1.1189545397583411e+00  1.1188835983487933e+00  1.1187546137528890e+00  0.0000000000000000e+00  1.9448655190486395e+00  1.9448607654017260e+00  1.9448167100795317e+00  1.9447810588365628e+00  1.9447676499286304e+00  2.0209412570533796e+00  2.0209791682659857e+00  2.0209946154558831e+00  2.0210299345448068e+00  2.0211079125166851e+00  0.0000000000000000e+00  0.0000000000000000e+00  0.0000000000000000e+00  0.0000000000000000e+00  0.0000000000000000e+00  0.0000000000000000e+00  0.0000000000000000e+00  0.0000000000000000e+00  0.0000000000000000e+00  2.0200781382136204e+00  2.0201219532823531e+00  2.0201309534211531e+00  2.0201464888146896e+00  2.0201796658253053e+00  2.0963627580512130e+00  2.0963361617524159e+00  2.0963490315578635e+00  2.0963673620461338e+00  2.0963341969071267e+00  0.0000000000000000e+00  0.0000000000000000e+00  0.0000000000000000e+00  0.0000000000000000e+00  0.0000000000000000e+00  0.0000000000000000e+00  0.0000000000000000e+00  0.0000000000000000e+00  0.0000000000000000e+00  2.0957383656102873e+00  2.0957017899451298e+00  2.0957176928973906e+00  2.0957398158843863e+00  2.0957131457138880e+00  2.1710763613771240e+00  2.1710067956682497e+00  2.1710300073386639e+00  2.1709972398346107e+00  2.1709114716646143e+00  0.0000000000000000e+00  0.0000000000000000e+00  0.0000000000000000e+00  0.0000000000000000e+00  0.0000000000000000e+00  0.0000000000000000e+00  0.0000000000000000e+00  0.0000000000000000e+00  0.0000000000000000e+00  2.1706543667542824e+00  2.1705983911095594e+00  2.1706239623654540e+00  2.1705962388264068e+00  2.1705199755992299e+00  2.2458255384325980e+00  2.2466126531292416e+00  2.2470644492728287e+00  2.2474504469948546e+00  2.2481553330776460e+00  0.0000000000000000e+00  0.0000000000000000e+00  0.0000000000000000e+00  0.0000000000000000e+00  0.0000000000000000e+00  0.0000000000000000e+00  0.0000000000000000e+00  0.0000000000000000e+00  0.0000000000000000e+00  2.2456885885853293e+00  2.2464349675440967e+00  2.2468620044191621e+00  2.2472262360399777e+00  2.2479037101926038e+00  2.3252181720737890e+00  2.3218158766323382e+00  2.3210105965922918e+00  2.3216519819144752e+00  2.3197672078124891e+00  0.0000000000000000e+00  0.0000000000000000e+00  0.0000000000000000e+00  0.0000000000000000e+00  0.0000000000000000e+00  0.0000000000000000e+00  0.0000000000000000e+00  0.0000000000000000e+00  0.0000000000000000e+00  2.3252059566955929e+00  2.3218206384046742e+00  2.3210152169998741e+00  2.3216521826856846e+00  2.3197808791535670e+00  </DataArray> 
</PointData> 
</Piece>
</UnstructuredGrid>
</VTKFile>