<?xml version="1.0"?>
<VTKFile type="UnstructuredGrid"  version="0.1"  >
<UnstructuredGrid>
<Piece  NumberOfPoints="589" NumberOfCells="1080">
<Points>
<DataArray  type="Float64"  NumberOfComponents="3"  format="ascii">-9 0 0  -8 0 0  -7 0 0  -6 0 0  -5 0 0  -4 0 0  -3 0 0  -2 0 0  -1 0 0  0 0 0  1 0 0  2 0 0  3 0 0  4 0 0  5 0 0  6 0 0  7 0 0  8 0 0  9 0 0  -9 2 0  -8.000003552022033 1.999994927051288 0  -7.000007456264163 1.999990450881213 0  -6.000012509932631 1.999987052837676 0  -5.00002050992413 1.999984933683147 0  -4.000012488096298 1.99998883013678 0  -3.000004183686328 1.999992370625626 0  -2.000000032495733 1.999995627231467 0  -0.9999991284031622 1.999998199106064 0  -2.545369282388867e-07 1.999999336367394 0  0.9999984573061121 1.999998590796561 0  1.999998813948501 1.999996152734588 0  3.000002029750534 1.999993157099717 0  4.000008477013466 1.999989956952753 0  5.000017732116784 1.999988689537468 0  6.000010665767769 1.999989193435933 0  7.000006317343319 1.999991677821285 0  8.000003006994035 1.999995498854274 0  9 2 0  -9 4 0  -8.00000569512588 3.999987467130314 0  -7.000010314823642 3.999976589363633 0  -6.00001323454968 3.999968990177139 0  -5.000014591014263 3.999966222540873 0  -4.000003098171291 3.99996800999986 0  -2.999995285024702 3.999977754758704 0  -1.999993008913118 3.999990417193323 0  -0.9999955386469724 4.00000059102155 0  -6.975446300698709e-07 4.000004724314456 0  0.9999940152546615 4.000001623416154 0  1.999991050422549 3.999993132420188 0  2.999992850246151 3.99998163234421 0  4.00000014026363 3.999970119933608 0  5.000011102707255 3.99996641028985 0  6.000010459795888 3.999970465011319 0  7.000008482346822 3.999978009196671 0  8.000004800509126 3.999988277408218 0  9 4 0  -9 6 0  -8.000012139768252 5.999973387470551 0  -7.000019973261391 5.999949614143259 0  -6.000020212232647 5.999931601900337 0  -5.00001191132379 5.999922155873358 0  -3.999989797739774 5.999936533695877 0  -2.99997960117474 5.999966487132051 0  -1.999983258735986 5.999997866465753 0  -0.9999927711977838 6.000015321483564 0  -2.386585588206602e-06 6.000018884483679 0  0.9999890256962405 6.000013315958856 0  1.999982572484233 5.999997869888517 0  2.999980315856202 5.999971805710876 0  3.999985675356605 5.999944837183032 0  5.000004392552843 5.999931639573848 0  6.000015591976393 5.999937779286353 0  7.000017464736958 5.999953445107877 0  8.000011068455956 5.999975239053047 0  9 6 0  -9 8 0  -8.000035807263492 7.999947954060286 0  -7.000060008653687 7.999899597862862 0  -6.00006134882396 7.999859951974163 0  -5.000030171076038 7.999837303642529 0  -3.999987697326487 7.999903369324358 0  -2.999995288981941 7.999981000614567 0  -2.000010987250999 8.000018859694453 0  -1.000012169828509 8.000023215585673 0  -2.556598420361725e-06 8.000024473594202 0  1.000004740715796 8.000028183662643 0  2.000002124724245 8.000012565323868 0  2.999984219297404 7.99998589777841 0  3.999978479793663 7.99992007021437 0  5.000019964749963 7.999845887828068 0  6.000058028540396 7.999866993546767 0  7.00005952069117 7.999904371905963 0  8.000036022866057 7.999950335253294 0  9 8 0  -9 10 0  -8.000105882977879 9.999907774017117 0  -7.000191472841634 9.999814759407107 0  -6.000232541581261 9.999720343235134 0  -5.000195342265148 9.999624319886486 0  -4.000128138004161 9.999837216679778 0  -3.000138726998446 10.00002040275687 0  -2.00011121392583 9.999989083061601 0  -1.000052103595938 9.9999790391169 0  -8.544474345057555e-06 9.999976600225038 0  1.000034597458052 9.999976776768234 0  2.000091768152324 9.999975618542194 0  3.000142461848911 10.00004036336461 0  4.000136871539433 9.999868649039559 0  5.000212337735768 9.99964238694878 0  6.000246719622741 9.999731141962469 0  7.000201516373918 9.999820972581057 0  8.000111064227587 9.99991063464195 0  9 10 0  -9 12 0  -8.000257060615345 11.99987077470468 0  -7.000500906553202 11.99973557136989 0  -6.000716585216987 11.99958724030318 0  -5.000885582965333 11.99941580616703 0  -4.00085117008332 11.99980350129581 0  -3.000881801586343 12.00018741004873 0  -2.000607786011351 12.00014070890106 0  -1.000302977346571 12.00011518499842 0  1.359061995833332e-05 12.00010974685057 0  1.000333539571501 12.00012515514266 0  2.000649889067007 12.00016602029298 0  3.000948743791694 12.00024392580831 0  4.000916954498641 11.99983341248222 0  5.000938605543133 11.99941962246488 0  6.000753594692408 11.99959104449557 0  7.000524429233953 11.99973828228364 0  8.000268505843291 11.99987214243082 0  9 12 0  -9 14 0  -8.000460951614256 13.99985771710533 0  -7.000922776977895 13.99970894536299 0  -6.001386955388327 13.99954662419606 0  -5.001856590861146 13.99936257493373 0  -4.001861157768436 13.99981535930265 0  -3.001863545694246 14.00027391558141 0  -2.001227803651682 14.00020768034187 0  -1.000601009822019 14.00017103586879 0  2.223228704755098e-05 14.00015955154592 0  1.00064708651326 14.00017175959474 0  2.001278385122761 14.00020833768792 0  3.001920006842338 14.00027129474253 0  4.001925901127317 13.99981738093466 0  5.001928666196662 13.99936635129159 0  6.00143674440282 13.99954779643304 0  7.000954172620524 13.99970916967793 0  8.000476151816267 13.99985769724756 0  9 14 0  -9 16 0  -8.000661149529609 15.99987063446365 0  -7.001334909344416 15.99973655842733 0  -6.002034973203106 15.99959298257376 0  -5.002777291255528 15.99943504488505 0  -4.00280333490364 15.99982134634366 0  -3.002778246152304 16.00020557031733 0  -2.001812537871362 16.0001564466361 0  -1.000885060526286 16.00012637307224 0  2.443049216522009e-05 16.00011470108907 0  1.000935087656926 16.00012099612293 0  2.00186608147692 16.00014525114063 0  3.002837812727016 16.00018778994082 0  4.00286622722529 15.99980559623782 0  5.002842019472078 15.9994230851769 0  6.00208191511198 15.99958491120046 0  7.001365361579019 15.99973149255718 0  8.000676112853652 15.99986817907514 0  9 16 0  -9 18 0  -8.000810696651444 17.99990239877962 0  -7.001641454365946 17.9998021909623 0  -6.002513374985165 17.99969682077955 0  -5.00344965131027 17.99958385290945 0  -4.003489108133108 17.99982259224729 0  -3.003450818976621 18.00006100598288 0  -2.002244995192402 18.000029141083 0  -1.001097471552854 18.00000823722428 0  2.194926700864235e-05 17.99999811418386 0  1.001142013320102 17.9999985212181 0  2.002291427533035 18.00000915226326 0  3.003500253377127 18.00002958901051 0  4.003540874781047 17.99979658969088 0  5.003502620802128 17.99956427409273 0  6.002552224316672 17.99968305207329 0  7.001666918431996 17.99979342394493 0  8.000823294849878 17.99989813371401 0  9 18 0  -9 20 0  -8.00087980667684 19.99994458596003 0  -7.001782966950647 19.99988847741486 0  -6.00273372620447 19.999831059973 0  -5.003758116904007 19.99977188098687 0  -4.003803136449836 19.99982230515545 0  -3.003758556621147 19.99987240808315 0  -2.002444980835984 19.99985808517231 0  -1.001197819962953 19.99984707431058 0  1.687829641915745e-05 19.99983950345899 0  1.00123184841282 19.99983524336183 0  2.002479805752157 19.99983391638149 0  3.003794649011573 19.99983487492043 0  4.003840033590642 19.9997918173924 0  5.003795538718294 19.99974925181975 0  6.002761497217742 19.99981482990119 0  7.00180133352301 19.99987801036061 0  8.000888944220069 19.99993945800598 0  8.999999999993637 19.99999999999844 0  -9 22 0  -8.00085532490426 21.99998954708765 0  -7.001733706465384 21.99997999797379 0  -6.002658920958944 21.99997234510632 0  -5.003656182125112 21.99996775986765 0  -4.003700181731784 21.99982017753132 0  -3.003656373976974 21.99967227910346 0  -2.002380042628623 21.9996738113724 0  -1.001168665103555 21.9996721846049 0  1.071737356499204e-05 21.99966768288066 0  1.001190076501345 21.99966026338161 0  2.002401367999853 21.99964956264694 0  3.003677503254523 21.99963489067909 0  4.003720971145831 21.99978998293538 0  5.003676813406932 21.99994540056549 0  6.002674613029506 21.99995619443497 0  7.001744262998641 21.9999695235991 0  8.00086062946469 21.99998439750583 0  9 22 0  -9 24 0  -8.000738435540157 24.00003089270356 0  -7.001496730785958 24.00006393273983 0  -6.002295291279835 24.00010135740451 0  -5.003155599310343 24.00014558657358 0  -4.003193418190297 23.99981655391855 0  -3.00315586816514 23.99948727183426 0  -2.002056000937441 23.99950214420658 0  -1.001011858968773 23.99950876679689 0  4.666086755435508e-06 23.99950750508203 0  1.001020938058345 23.99949837778133 0  2.00206430595966 23.99948105879729 0  3.003162834200036 23.99945487493624 0  4.003199130519656 23.99979051221642 0  5.003160672406702 24.00012638588083 0  6.002299708338341 24.0000874134838 0  7.001499958370995 24.00005485446989 0  8.000740131583445 24.00002641896255 0  9 24 0  -9 26 0  -8.00054190208019 26.00006365230234 0  -7.001098288405755 26.00013033054787 0  -6.001684016482328 26.00020315068986 0  -5.002314658977122 26.0002854114136 0  -4.002342417501436 25.99981182283616 0  -3.002315260894291 25.999338062809 0  -2.001509741705776 25.99936340990499 0  -1.000744895418893 25.99937682122908 0  -3.438914700101818e-07 25.99937872366757 0  1.000743786802465 25.99936919095176 0  2.001507355648037 25.99934794313934 0  3.002310695183291 25.99931434626541 0  4.002335944932385 25.99979282195365 0  5.002307202456183 26.00027144894782 0  6.001679331475937 26.0001929794646 0  7.001095587884253 26.00012369306767 0  8.000540675936275 26.00006037656181 0  9 26 0  -9 28 0  -8.000287195050458 28.00008431210838 0  -7.000582046100011 28.00017216288444 0  -6.000892408198182 28.00026718111832 0  -5.001226490397024 28.00037317706105 0  -4.001241594042348 27.99980645408358 0  -3.001227588142918 27.99923965901135 0  -2.000801460661358 27.99927235105167 0  -1.000397054835418 27.9992908416284 0  -3.640802017083863e-06 27.99929561329624 0  1.000389247932782 27.99928679225566 0  2.000792061732219 27.99926414808778 0  3.001215483030608 27.99922709347757 0  4.001227190400715 27.9997964169336 0  5.001210901265984 28.00036583012638 0  6.000881809248294 28.00026181855123 0  7.000575491480653 28.00016865814039 0  8.000284068763273 
[...]
<PointData  Scalars="f_44-1"> 
<DataArray  type="Float64"  Name="f_44-1"  format="ascii">8.8622338363821863e-04  8.6874894872948687e-05  5.3909283781473243e-05  1.2224279902951708e-04  -1.0724915728956722e-03  0.0000000000000000e+00  0.0000000000000000e+00  0.0000000000000000e+00  0.0000000000000000e+00  0.0000000000000000e+00  0.0000000000000000e+00  0.0000000000000000e+00  0.0000000000000000e+00  0.0000000000000000e+00  9.0274445411119128e-04  8.6882043086581313e-05  5.4514793737096923e-05  1.2179486511851228e-04  -1.0981812466956729e-03  4.1519659616024648e-02  4.1564478522132603e-02  4.1545113284310771e-02  4.1435410074034881e-02  4.1374757683219972e-02  0.0000000000000000e+00  0.0000000000000000e+00  0.0000000000000000e+00  0.0000000000000000e+00  0.0000000000000000e+00  0.0000000000000000e+00  0.0000000000000000e+00  0.0000000000000000e+00  0.0000000000000000e+00  4.1663017731640044e-02  4.1707374847187152e-02  4.1686528905796168e-02  4.1574628765924736e-02  4.1514349221148480e-02  8.3095357403858872e-02  8.3092210097626990e-02  8.3067612153456427e-02  8.3057872305208696e-02  8.3070913520431999e-02  0.0000000000000000e+00  0.0000000000000000e+00  0.0000000000000000e+00  0.0000000000000000e+00  0.0000000000000000e+00  0.0000000000000000e+00  0.0000000000000000e+00  0.0000000000000000e+00  0.0000000000000000e+00  8.3374747951092260e-02  8.3370347272001322e-02  8.3345079596622129e-02  8.3336937318252147e-02  8.3356697283239939e-02  1.2464254443665788e-01  1.2463866019789575e-01  1.2463457080029169e-01  1.2462841813598161e-01  1.2460986633073905e-01  0.0000000000000000e+00  0.0000000000000000e+00  0.0000000000000000e+00  0.0000000000000000e+00  0.0000000000000000e+00  0.0000000000000000e+00  0.0000000000000000e+00  0.0000000000000000e+00  0.0000000000000000e+00  1.2507286981874985e-01  1.2504962516394430e-01  1.2503628046543339e-01  1.2502977070201479e-01  1.2502524473865032e-01  1.6621003673390938e-01  1.6620695115225301e-01  1.6620651374282255e-01  1.6619396496768060e-01  1.6618054024006507e-01  0.0000000000000000e+00  0.0000000000000000e+00  0.0000000000000000e+00  0.0000000000000000e+00  0.0000000000000000e+00  0.0000000000000000e+00  0.0000000000000000e+00  0.0000000000000000e+00  0.0000000000000000e+00  1.6674236956292290e-01  1.6672104947887340e-01  1.6669775171332538e-01  1.6668538500256772e-01  1.6668309792837521e-01  2.0776158862673288e-01  2.0775968724573632e-01  2.0777787900333961e-01  2.0782594361577228e-01  2.0793951994923848e-01  0.0000000000000000e+00  6.1538674434886276e-01  6.1535240525088730e-01  6.1553294590941876e-01  6.1558588046837015e-01  6.1554312456060212e-01  6.1534930252844389e-01  6.1475697894756254e-01  0.0000000000000000e+00  2.0840066670756591e-01  2.0834835817329314e-01  2.0831173589638036e-01  2.0829783868950777e-01  2.0829773263191803e-01  2.4925057003408185e-01  2.4924442706893044e-01  2.4925851772339036e-01  2.4929278575016403e-01  2.4931414051389289e-01  0.0000000000000000e+00  6.1555688493051919e-01  6.1569537457264290e-01  6.1577097148080850e-01  6.1577389753712897e-01  6.1574054435075565e-01  6.1567094684492163e-01  6.1567302222711906e-01  0.0000000000000000e+00  2.4990794215278464e-01  2.4986146058337846e-01  2.4985599116931770e-01  2.4985457269564207e-01  2.4986056243049490e-01  2.9066953119624650e-01  2.9065717647215872e-01  2.9066146565785178e-01  2.9068043542826366e-01  2.9070825991260030e-01  0.0000000000000000e+00  6.1618727562115594e-01  6.1618455554224294e-01  6.1617038795643175e-01  6.1615846533866259e-01  6.1613349851408494e-01  6.1609224958479314e-01  6.1603803848099270e-01  0.0000000000000000e+00  2.9134916705384523e-01  2.9135363397508240e-01  2.9136402667563138e-01  2.9137273550817150e-01  2.9138522095029679e-01  3.3202806316147698e-01  3.3201045034869497e-01  3.3200691868616711e-01  3.3201528488051846e-01  3.3202704256160021e-01  0.0000000000000000e+00  6.1661187201353895e-01  6.1662775955242000e-01  6.1662858433419354e-01  6.1661726226720670e-01  6.1659251923458114e-01  6.1655369506352120e-01  6.1650573690105948e-01  0.0000000000000000e+00  3.3283796599795817e-01  3.3284325710296470e-01  3.3285677010170361e-01  3.3287065362445240e-01  3.3288795093641765e-01  3.7333393322231195e-01  3.7331331532570911e-01  3.7330610419669530e-01  3.7331037723844307e-01  3.7332125466456445e-01  0.0000000000000000e+00  6.1711023542868726e-01  6.1712675334887679e-01  6.1712961630169305e-01  6.1712094244716420e-01  6.1710083721865294e-01  6.1706850668905100e-01  6.1702756073673959e-01  0.0000000000000000e+00  3.7434563769887941e-01  3.7433614739712107e-01  3.7433878742596555e-01  3.7434931877849559e-01  3.7436832195258529e-01  4.1458884027053927e-01  4.1456778393498495e-01  4.1456039460951583e-01  4.1456512330080708e-01  4.1457969553476881e-01  0.0000000000000000e+00  6.1764526675628040e-01  6.1766541843679568e-01  6.1767324192159467e-01  6.1766887743869958e-01  6.1765330171883737e-01  6.1762579582377986e-01  6.1758698982270732e-01  0.0000000000000000e+00  4.1581873941445652e-01  4.1579452561725466e-01  4.1578583417935205e-01  4.1579091317845301e-01  4.1580948586447392e-01  4.5579167154331746e-01  4.5577255751951923e-01  4.5576705482181051e-01  4.5577376992140761e-01  4.5579231394731129e-01  0.0000000000000000e+00  6.1822527521325310e-01  6.1824756848594020e-01  6.1825929610098174e-01  6.1825876663121815e-01  6.1824733544542365e-01  6.1822432939491634e-01  6.1818849896523409e-01  0.0000000000000000e+00  4.5723498730323053e-01  4.5719696412235344e-01  4.5717686482214431e-01  4.5717536748500504e-01  4.5719133154570768e-01  4.9694295452312914e-01  4.9692777306126468e-01  4.9692511040178000e-01  4.9693361226273036e-01  4.9695425717963987e-01  0.0000000000000000e+00  6.1885235645473202e-01  6.1887385665994921e-01  6.1888724705230214e-01  6.1888938335149724e-01  6.1888164841328530e-01  6.1886347666627983e-01  6.1883223973432544e-01  0.0000000000000000e+00  4.9857255138666490e-01  4.9852456774528980e-01  4.9849519221654554e-01  4.9848720577756161e-01  4.9849876131012227e-01  5.3804761949652591e-01  5.3803782865776850e-01  5.3803819212532411e-01  5.3804732663551347e-01  5.3806715799181015e-01  0.0000000000000000e+00  6.1952363532132804e-01  6.1954117779434748e-01  6.1955382048480245e-01  6.1955729157951311e-01  6.1955281851192778e-01  6.1954003438287142e-01  6.1951541538873611e-01  0.0000000000000000e+00  5.3982003522317656e-01  5.3976719659222128e-01  5.3973178474997530e-01  5.3971819982928460e-01  5.3972404184645584e-01  5.7911574870892135e-01  5.7911217834706652e-01  5.7911524743526921e-01  5.7912351886559876e-01  5.7913944178927046e-01  0.0000000000000000e+00  6.2023204289767087e-01  6.2024270700369599e-01  6.2025227080216916e-01  6.2025572895748893e-01  6.2025403945416702e-01  6.2024711522009301e-01  6.2023095652803251e-01  0.0000000000000000e+00  5.8097656917274809e-01  5.8092422707801861e-01  5.8088643173813548e-01  5.8086865348337002e-01  5.8086808084136310e-01  6.2016190242398850e-01  6.2016469473269742e-01  6.2016981795067005e-01  6.2017576973816380e-01  6.2018516584953465e-01  0.0000000000000000e+00  6.2096599824057608e-01  6.2096759347584896e-01  6.2097214705794723e-01  6.2097435898851816e-01  6.2097485415096620e-01  6.2097389058367503e-01  6.2096734875575699e-01  0.0000000000000000e+00  6.2205059538542573e-01  6.2200370096734825e-01  6.2196717900439180e-01  6.2194694872220380e-01  6.2193993372651568e-01  6.6120351830816892e-01  6.6121212087846581e-01  6.6121843953662485e-01  6.6122090714846127e-01  6.6122198160111290e-01  0.0000000000000000e+00  6.2171028967268116e-01  6.2170169380209372e-01  6.2169991734239771e-01  6.2169984035754500e-01  6.2170173588796029e-01  6.2170623746996667e-01  6.2170942113254279e-01  0.0000000000000000e+00  6.6305803126800222e-01  6.6302072085948693e-01  6.6298884518450518e-01  6.6296810444450271e-01  6.6295530942135716e-01  7.0225892266802337e-01  7.0227214190881582e-01  7.0227867538801836e-01  7.0227690325679515e-01  7.0226883285670028e-01  0.0000000000000000e+00  6.2244774222959709e-01  6.2242906296083467e-01  6.2242035544544783e-01  6.2241717949394304e-01  6.2241947120604690e-01  6.2242821572311180e-01  6.2243999153262064e-01  0.0000000000000000e+00  7.0401996776439801e-01  7.0399536051734579e-01  7.0397105940680027e-01  7.0395184797112531e-01  7.0393458361045347e-01  7.4334534380808126e-01  7.4336146009901349e-01  7.4336717660799723e-01  7.4336085730370693e-01  7.4334378001673940e-01  0.0000000000000000e+00  6.2316155645882010e-01  6.2313406689622008e-01  6.2311851425329290e-01  6.2311164665899199e-01  6.2311311975398109e-01  6.2312416820196204e-01  6.2314219732288911e-01  0.0000000000000000e+00  7.4496040574712363e-01  7.4495055165774227e-01  7.4493622505775381e-01  7.4492059162916036e-01  7.4490070983421153e-01  7.8447717036791575e-01  7.8449412814529151e-01  7.8449803457860623e-01  7.8448732771028162e-01  7.8446223543554350e-01  0.0000000000000000e+00  6.2383787187655582e-01  6.2380362476269458e-01  6.2378179371743558e-01  6.2377081082936070e-01  6.2377013879028043e-01  6.2378106921659926e-01  6.2380216414408540e-01  0.0000000000000000e+00  7.8590420086315260e-01  7.8591017714174038e-01  7.8590767901440417e-01  7.8589758530439802e-01  7.8587729863180211e-01  8.2566464641980708e-01  8.2568031521248209e-01  8.2568152130922190e-01  8.2566694213023328e-01  8.2563538614638399e-01  0.0000000000000000e+00  6.2446780782397360e-01  6.2442896054919039e-01  6.2440153963104428e-01  6.2438610518278914e-01  6.2438200503072816e-01  6.2439020992980931e-01  6.2441088380550247e-01  0.0000000000000000e+00  8.2687542321422369e-01  8.2689754293682693e-01  8.2690820887392136e-01  8.2690544229994267e-01  8.2688709038591512e-01  8.6691345857706126e-01  8.6692584096314773e-01  8.6692343278430739e-01  8.6690527735926415e-01  8.6686850993521869e-01  0.0000000000000000e+00  6.2504789806670835e-01  6.2500609487173486e-01  6.2497328352120385e-01  6.2495315824186004e-01  6.2494495662914784e-01  6.2494880756374249e-01  6.2496672921282459e-01  0.0000000000000000e+00  8.6789628377520567e-01  8.6793429456563875e-01  8.6795905219093150e-01  8.6796518037441595e-01  8.6795093908728682e-01  9.0822409805492588e-01  9.0823206841459836e-01  9.0822609392817910e-01  9.0820729079900675e-01  9.0816919430258147e-01  0.0000000000000000e+00  6.2558216655889853e-01  6.2553323071417899e-01  6.2549381682422056e-01  6.2546901733004345e-01  6.2545821354374420e-01  6.2546014176131670e-01  6.2547754700056857e-01  0.0000000000000000e+00  9.0898563964374079e-01  9.0903965912018025e-01  9.0907973952544974e-01  9.0909608245465712e-01  9.0908761869797927e-01  9.4959530815130322e-01  9.4959740739110132e-01  9.4958347521198327e-01  9.4955771188432447e-01  9.4951308413411473e-01  0.0000000000000000e+00  6.2605604083712751e-01  6.2600107316681075e-01  6.2595942375813962e-01  6.2593439909619530e-01  6.2592272882854905e-01  6.2590925383645757e-01  6.2590780107440402e-01  0.0000000000000000e+00  9.5015594859970331e-01  9.5023431035127248e-01  9.5028963364361407e-01  9.5031632720027381e-01  9.5031425153305771e-01  9.9103317662569523e-01  9.9102995713781661e-01  9.9100839901735305e-01  9.9096978758531595e-01  9.9087796159253971e-01  0.0000000000000000e+00  6.2642369774895568e-01  6.2642525327341014e-01  6.2635566708507229e-01  6.2632237423748915e-01  6.2632539079896155e-01  6.2640094632199250e-01  6.2653907983996471e-01  0.0000000000000000e+00  9.9147816245110998e-01  9.9154172780096628e-01  9.9160827464689749e-01  9.9164224685807512e-01  9.9164538814016201e-01  1.0325492828092910e+00  1.0325428473945577e+00  1.0325152092864796e+00  1.0324576060552277e+00  1.0323790964536705e+00  0.0000000000000000e+00  6.2733841898709686e-01  6.2674807358560569e-01  6.2655561990159492e-01  6.2651295965419174e-01  6.2656543977559542e-01  6.2674423256787926e-01  6.2671087325902419e-01  0.0000000000000000e+00  1.0328419514533300e+00  1.0329824310082301e+00  1.0330506907349497e+00  1.0330821378717363e+00  1.0330867086298865e+00  1.0741450713661440e+00  1.0741396676849719e+00  1.0741204489259581e+00  1.0740882779397083e+00  1.0740584437275142e+00  0.0000000000000000e+00  0.0000000000000000e+00  0.0000000000000000e+00  0.0000000000000000e+00  0.0000000000000000e+00  0.0000000000000000e+00  0.0000000000000000e+00  0.0000000000000000e+00  0.0000000000000000e+00  1.0746131383590793e+00  1.0746111524642015e+00  1.0746106991247468e+00  1.0746180544426880e+00  1.0746188472964160e+00  1.1158000686193021e+00  1.1157919182560119e+00  1.1157829962970227e+00  1.1157671114462815e+00  1.1157410385101834e+00  0.0000000000000000e+00  0.0000000000000000e+00  0.0000000000000000e+00  0.0000000000000000e+00  0.0000000000000000e+00  0.0000000000000000e+00  0.0000000000000000e+00  0.0000000000000000e+00  0.0000000000000000e+00  1.1162105541087306e+00  1.1161914629449461e+00  1.1161879274256612e+00  1.1161866106691010e+00  1.1161837827231098e+00  1.1574626244693589e+00  1.1574846789136026e+00  1.1574795668854958e+00  1.1574516801609531e+00  1.1574456020741706e+00  0.0000000000000000e+00  0.0000000000000000e+00  0.0000000000000000e+00  0.0000000000000000e+00  0.0000000000000000e+00  0.0000000000000000e+00  0.0000000000000000e+00  0.0000000000000000e+00  0.0000000000000000e+00  1.1577505774501458e+00  1.1577659494049235e+00  1.1577601637256443e+00  1.1577343475041644e+00  1.1577310960399594e+00  1.1992978386669990e+00  1.1992591031520092e+00  1.1991534696117438e+00  1.1991429787474457e+00  1.1992019962778464e+00  0.0000000000000000e+00  0.0000000000000000e+00  0.0000000000000000e+00  0.0000000000000000e+00  0.0000000000000000e+00  0.0000000000000000e+00  0.0000000000000000e+00  0.0000000000000000e+00  0.0000000000000000e+00  1.1994412180720844e+00  1.1994003548139260e+00  1.1992972589554387e+00  1.1992881250274126e+00  1.1993469464886828e+00  1.2420327515712799e+00  1.2407087507141230e+00  1.2407619497281466e+00  1.2407412914161384e+00  1.2398909086469942e+00  0.0000000000000000e+00  0.0000000000000000e+00  0.0000000000000000e+00  0.0000000000000000e+00  0.0000000000000000e+00  0.0000000000000000e+00  0.0000000000000000e+00  0.0000000000000000e+00  0.0000000000000000e+00  1.2419974071681954e+00  1.2407093478471081e+00  1.2407628825589814e+00  1.2407411628822660e+00  1.2399120683096334e+00  </DataArray> 
</PointData> 
</Piece>
</UnstructuredGrid>
</VTKFile>