<?xml version="1.0"?>
<VTKFile type="UnstructuredGrid"  version="0.1"  >
<UnstructuredGrid>
<Piece  NumberOfPoints="589" NumberOfCells="1080">
<Points>
<DataArray  type="Float64"  NumberOfComponents="3"  format="ascii">-9 0 0  -8 0 0  -7 0 0  -6 0 0  -5 0 0  -4 0 0  -3 0 0  -2 0 0  -1 0 0  0 0 0  1 0 0  2 0 0  3 0 0  4 0 0  5 0 0  6 0 0  7 0 0  8 0 0  9 0 0  -9 2 0  -8.000000547699514 1.999999474885103 0  -7.000001171233196 1.999998974923124 0  -6.000001992091414 1.999998515702333 0  -5.000003240706309 1.999998088355879 0  -4.000002361946463 1.999998677129612 0  -3.000001361796783 1.999999027177619 0  -2.000000732167537 1.999999264402905 0  -1.000000333205035 1.999999444552364 0  -7.499517763590261e-08 1.999999520643471 0  1.00000017051645 1.999999472631957 0  2.000000524166458 1.999999309102977 0  3.000001077890857 1.999999085033457 0  4.000001879479571 1.999998794147992 0  5.000002954342378 1.999998546436311 0  6.000001807127865 1.999998761095998 0  7.000001058983385 1.999999106160928 0  8.000000494442222 1.999999533034924 0  9 2 0  -9 4 0  -8.000000792061529 3.999998849159835 0  -7.000001553167364 3.999997786882733 0  -6.000002273154224 3.999996903908302 0  -5.000002970511714 3.999996296369193 0  -4.000001927142535 3.999996459730175 0  -3.00000107647979 3.999997118634212 0  -2.00000052546637 3.999997972513758 0  -1.000000235634334 3.999998632780885 0  -1.045892598646553e-07 3.99999890152961 0  1.000000015786377 3.999998714580594 0  2.000000275451689 3.999998169741729 0  3.000000818179136 3.999997409277422 0  4.000001665418273 3.999996629747472 0  5.000002647261305 3.999996281914818 0  6.000002017972341 3.999997000572085 0  7.000001383551919 3.999997885087026 0  8.000000708487562 3.99999890570688 0  9 4 0  -9 6 0  -8.000001160245425 5.999997869186051 0  -7.000002099577673 5.999995881634877 0  -6.000002644735686 5.999994190375456 0  -5.000002737499734 5.999992954982935 0  -4.000001106932702 5.99999378535756 0  -3.000000152578084 5.999995565961759 0  -1.999999950137481 5.999997434389163 0  -1.000000081853639 5.9999984998102 0  -2.29209763291696e-07 5.999998748478808 0  0.9999996888599325 5.999998403247043 0  1.999999744512239 5.999997463604751 0  3.000000016698142 5.999995915518999 0  4.000000689945824 5.999994314203605 0  5.000002115510641 5.999993552334804 0  6.00000224934372 5.999994576620045 0  7.000001870695914 5.999996119596845 0  8.000001056224615 5.999997983689291 0  9 6 0  -9 8 0  -8.000002411113806 7.99999631617379 0  -7.000004222682624 7.999992791233161 0  -6.000004825894757 7.99998965338724 0  -5.000003628628019 7.999987303274657 0  -4.000001012235181 7.99999103661005 0  -3.000001002186094 7.999995432109388 0  -2.000001470221822 7.999997674616059 0  -1.000001154482602 7.999998085703962 0  -2.782668975368428e-07 7.999998214556745 0  1.00000049170516 7.999998352640406 0  2.000000672221287 7.99999741891007 0  3.000000079096957 7.999995715405489 0  4.0000002889335 7.999991974909495 0  5.000002994940801 7.999987857238843 0  6.000004530633614 7.999990077917064 0  7.000004101126901 7.999993069656712 0  8.000002370967662 7.999996452809441 0  9 8 0  -9 10 0  -8.000006060116092 9.999994127659466 0  -7.000011179301686 9.99998815251238 0  -6.000014208918127 9.999981965562993 0  -5.000013497702494 9.999975442004539 0  -4.000009763550811 9.999986514714827 0  -3.000009501357889 9.999996178113914 0  -2.000007200006555 9.999995084784405 0  -1.000003514651264 9.999994733715674 0  -6.236949416913529e-07 9.99999465529844 0  1.000002248498594 9.999994619406925 0  2.000005824553849 9.999994416084746 0  3.000009451975038 9.999997191428587 0  4.000009892929245 9.999988049511234 0  5.000013948973741 9.999976342359469 0  6.000014672634956 9.999982495040404 0  7.000011534112771 9.999988454107754 0  8.000006248904702 9.999994265808674 0  9 10 0  -9 12 0  -8.000013472655542 11.99999235044259 0  -7.000026493903908 11.99998436111537 0  -6.000038554670159 11.99997562436377 0  -5.000049038263621 11.99996557052872 0  -4.000047520291583 11.99998412066024 0  -3.000048537707563 12.00000248403141 0  -2.000032763282948 12.00000022006439 0  -1.000016251611183 11.99999900933378 0  4.956707067655771e-07 11.99999874828968 0  1.000017422855281 11.99999946157855 0  2.000034546894109 12.00000139367805 0  3.000051637695035 12.00000517732901 0  4.000050730898831 11.99998540931758 0  5.000051582944355 11.9999655329828 0  6.0000402629895 11.99997568676982 0  7.000027553641544 11.99998442812311 0  8.00001398149457 11.99999238891017 0  9 12 0  -9 14 0  -8.000022690480947 13.99999193237345 0  -7.000045649900181 13.99998355953243 0  -6.000069208217127 13.99997455166467 0  -5.000093845016468 13.99996453343369 0  -4.000094349940951 13.99998419081327 0  -3.000093796611313 14.00000415778899 0  -2.000061276209155 14.00000114255584 0  -1.000029931313114 13.9999994863285 0  8.954761753762599e-07 13.99999894405825 0  1.000031810246468 13.99999942864283 0  2.000063403065738 14.00000096527431 0  3.000096256940148 14.0000036463133 0  4.000097209023017 13.99998402905473 0  5.000097072002426 13.99996459246366 0  6.000071410057235 13.99997452851648 0  7.000047023860209 13.99998352456928 0  8.000023351153446 13.99999191089125 0  9 14 0  -9 16 0  -8.000030832127658 15.99999273519592 0  -7.000062409613494 15.9999852981312 0  -6.000095546727287 15.99997752052832 0  -5.000131201951842 15.99996924783918 0  -4.00013256744152 15.99998388236907 0  -3.000130904519135 15.99999840223112 0  -2.000085088224235 15.99999662935944 0  -1.000041539087251 15.99999550775663 0  9.433510569100858e-07 15.9999950326391 0  1.000043485914725 15.99999518774586 0  2.000087216035333 15.9999959594656 0  3.000133340913381 15.99999733031604 0  4.000135142673848 15.9999829930697 0  5.000133847103784 15.99996864798871 0  6.000097452844044 15.9999771303856 0  7.000063639337285 15.99998506003248 0  8.000031434115392 15.99999262177411 0  9 16 0  -9 18 0  -8.000035991888371 17.9999942270557 0  -7.000072930178596 17.99998839889621 0  -6.000111811640882 17.99998246975773 0  -5.000153733961643 17.99997641437913 0  -4.000155464167564 17.9999833496607 0  -3.000153524885402 17.99999027914617 0  -2.000099832828627 17.99998951119657 0  -1.000048880656182 17.99998894344181 0  7.50695151104716e-07 17.99998860052223 0  1.000050411876527 17.99998848058786 0  2.000101451128043 17.99998855730474 0  3.000155279205756 17.99998877607935 0  4.00015729146986 17.99998219445208 0  5.000155586659186 17.99997565607395 0  6.000113171334113 17.99998194329289 0  7.000073820873861 17.99998806714028 0  8.000036432192198 17.9999940667209 0  9 18 0  -9 20 0  -8.000037365708135 19.99999593975127 0  -7.000075677400738 19.99999190355292 0  -6.000115911853264 19.9999879239145 0  -5.00015910636183 19.99998405059062 0  -4.000160833044678 19.9999828148809 0  -3.00015895083897 19.99998157946945 0  -2.000103619150558 19.99998159231366 0  -1.000050939464598 19.99998147988267 0  4.387021174210471e-07 19.99998127654699 0  1.000051826102149 19.99998098689789 0  2.000104532093127 19.99998058696037 0  3.000159903163198 19.99998002303217 0  4.000161787996483 19.99998166557792 0  5.000160063597857 19.99998333636307 0  6.000116629241699 19.9999874096499 0  7.000076154667181 19.99999157128868 0  8.000037603937733 19.99999577684591 0  9 20 0  -9 22 0  -8.000034955327738 21.9999975562185 0  -7.000070733017997 21.99999518193519 0  -6.000108170898844 21.99999295276377 0  -5.000148136374274 21.99999095658936 0  -4.00014964684762 21.99998230133356 0  -3.000148064574461 21.99997365146229 0  -2.00009679855871 21.99997417447918 0  -1.000047792715683 21.99997437990571 0  8.978566777834598e-08 21.99997429779236 0  1.000047966500259 21.99997393432031 0  2.000096953864168 21.99997327251626 0  3.00014818536624 21.99997227228181 0  4.000149732231862 21.99998131224687 0  5.00014820615698 21.99999037089006 0  6.000108245735423 21.99999252254511 0  7.000070793036746 21.99999489972392 0  8.000034988259809 21.99999741655164 0  9 22 0  -9 24 0  -8.000029255276649 23.99999889467359 0  -7.000059147376371 23.99999787984123 0  -6.000090318733893 23.99999704958253 0  -5.000123421597639 23.99999650503351 0  -4.000124620981813 23.99998185473052 0  -3.000123449455677 23.9999672149703 0  -2.000080938243004 23.9999680268945 0  -1.000040153047115 23.9999684299867 0  -2.359540207583197e-07 23.99996844437252 0  1.000039664810269 23.99996807496487 0  2.000080400119884 23.99996731167335 0  3.000122825199923 23.99996612979372 0  4.000123939928156 23.99998109866595 0  5.000122721086683 23.99999608280079 0  6.000089830559348 23.9999967333025 0  7.00005883925432 23.99999766953324 0  8.000029106320854 23.99999878975232 0  9 24 0  -9 26 0  -8.000021007648185 25.99999987114185 0  -7.000042444345167 25.99999983943531 0  -6.000064739781155 26.00000000353565 0  -5.000088323980646 26.00000046492533 0  -4.00008918559113 25.99998150350024 0  -3.000088461507274 25.99996255493975 0  -2.000058174738665 25.99996351451984 0  -1.000029041370928 25.99996403478006 0  -4.963427050016174e-07 25.99996412601361 0  1.000028025416032 25.99996379102791 0  2.000057088252219 25.99996302505686 0  3.000087254927957 25.99996181633848 0  4.000087912481295 25.99998100105084 0  5.000087032475494 26.00000019890618 0  6.000063817773302 25.99999980112027 0  7.000041851561591 25.99999970337345 0  8.000020717757254 25.999999802828 0  9 26 0  -9 28 0  -8.000011043610071 28.00000045899879 0  -7.000022305905288 28.00000101579379 0  -6.000034004993347 28.00000176835871 0  -5.00004635732845 28.00000281479319 0  -4.000046885830869 27.99998126087698 0  -3.000046609390442 27.99995972045374 0  -2.00003079846869 27.99996075933437 0  -1.000015576724314 27.9999613555915 0  -6.636669534974463e-07 27.99996151244237 0  1.00001422222762 27.99996123090443 0  2.000029361815362 27.99996050946344 0  3.000045033596063 27.99995934460346 0  4.000045239959558 27.99998100851899 0  5.000044695507504 28.00000268520757 0  6.000032810325054 28.00000166877392 0  7.000021533817097 28.00000094840413 0  8.000010664819872 28.00000042503183 0  9 28 0  -9 30 0 
[...]
<PointData  Scalars="f_44-1"> 
<DataArray  type="Float64"  Name="f_44-1"  format="ascii">1.8643107301670911e-04  2.4961786083401883e-05  1.1192821411379821e-05  2.1075057925331646e-05  -2.0883980633596406e-04  0.0000000000000000e+00  0.0000000000000000e+00  0.0000000000000000e+00  0.0000000000000000e+00  0.0000000000000000e+00  0.0000000000000000e+00  0.0000000000000000e+00  0.0000000000000000e+00  0.0000000000000000e+00  1.9149672999949980e-04  2.5022767847957690e-05  1.1420591161199139e-05  2.0985546159183701e-05  -2.1754026281760463e-04  7.9373388990478088e-03  7.9453850057739882e-03  7.9404616177544060e-03  7.9193172398406998e-03  7.9030701493219072e-03  0.0000000000000000e+00  0.0000000000000000e+00  0.0000000000000000e+00  0.0000000000000000e+00  0.0000000000000000e+00  0.0000000000000000e+00  0.0000000000000000e+00  0.0000000000000000e+00  0.0000000000000000e+00  7.9598361629220991e-03  7.9663679592582443e-03  7.9598886798646264e-03  7.9368145504628215e-03  7.9190110356831579e-03  1.5881997904611349e-02  1.5882234182833667e-02  1.5878261230231581e-02  1.5876930907580859e-02  1.5880880617276626e-02  0.0000000000000000e+00  0.0000000000000000e+00  0.0000000000000000e+00  0.0000000000000000e+00  0.0000000000000000e+00  0.0000000000000000e+00  0.0000000000000000e+00  0.0000000000000000e+00  0.0000000000000000e+00  1.5922893320538797e-02  1.5921848759960375e-02  1.5916289371718965e-02  1.5913610542127830e-02  1.5917559537533817e-02  2.3822062644226278e-02  2.3821924670030702e-02  2.3822641056255086e-02  2.3823578116266862e-02  2.3822710172140004e-02  0.0000000000000000e+00  0.0000000000000000e+00  0.0000000000000000e+00  0.0000000000000000e+00  0.0000000000000000e+00  0.0000000000000000e+00  0.0000000000000000e+00  0.0000000000000000e+00  0.0000000000000000e+00  2.3887930319608893e-02  2.3882924857192091e-02  2.3878235729780185e-02  2.3875074426413727e-02  2.3874160850099389e-02  3.1757325897857534e-02  3.1758653748985316e-02  3.1764872556510976e-02  3.1772669396442570e-02  3.1780026597315957e-02  0.0000000000000000e+00  0.0000000000000000e+00  0.0000000000000000e+00  0.0000000000000000e+00  0.0000000000000000e+00  0.0000000000000000e+00  0.0000000000000000e+00  0.0000000000000000e+00  0.0000000000000000e+00  3.1856367935687344e-02  3.1845968403701089e-02  3.1833345938597851e-02  3.1824230222979075e-02  3.1821850051435438e-02  3.9666786068690119e-02  3.9671738080219496e-02  3.9693604281848163e-02  3.9730258956481260e-02  3.9781422041688164e-02  0.0000000000000000e+00  8.2643000793592714e-02  8.2677560188223226e-02  8.2741085929716254e-02  8.2764963326217245e-02  8.2739637930937610e-02  8.2668837228633635e-02  8.2550249760626540e-02  0.0000000000000000e+00  3.9853759238143827e-02  3.9808122512409880e-02  3.9769961676106372e-02  3.9745520465782530e-02  3.9739525938893037e-02  4.7501354121841581e-02  4.7512318194473095e-02  4.7559922358286030e-02  4.7641826610741088e-02  4.7752734616992212e-02  0.0000000000000000e+00  8.2643209100945941e-02  8.2765122619046519e-02  8.2841250416063744e-02  8.2863498291947210e-02  8.2834457645088871e-02  8.2758929852935328e-02  8.2650095563339437e-02  0.0000000000000000e+00  4.7851015580429403e-02  4.7731991525061773e-02  4.7646230870717371e-02  4.7594507696469522e-02  4.7582022170884496e-02  5.5181823621346715e-02  5.5201034544917219e-02  5.5283787894086792e-02  5.5430191058979762e-02  5.5642862525072265e-02  0.0000000000000000e+00  8.2821251784426092e-02  8.3021884169047835e-02  8.3141961174630769e-02  8.3180653949411723e-02  8.3136756684843063e-02  8.3010577167517891e-02  8.2798936412296367e-02  0.0000000000000000e+00  5.5748324937904804e-02  5.5532291920742688e-02  5.5380363736527251e-02  5.5292281778478530e-02  5.5271218258887339e-02  6.2606126677407517e-02  6.2633887178088793e-02  6.2752579491968261e-02  6.2963947885756169e-02  6.3274336139461790e-02  0.0000000000000000e+00  8.3295960786707687e-02  8.3596606382903629e-02  8.3774096230976994e-02  8.3831429161072030e-02  8.3769878014344296e-02  8.3588393485208731e-02  8.3279640587914192e-02  0.0000000000000000e+00  6.3388925651900727e-02  6.3074293058435330e-02  6.2857212886630862e-02  6.2733458231479827e-02  6.2703973259366261e-02  6.9671848177482371e-02  6.9706382093622718e-02  6.9853157113271114e-02  7.0114592384618202e-02  7.0499468106484053e-02  0.0000000000000000e+00  8.4287897885042609e-02  8.4662173107751565e-02  8.4882129338767348e-02  8.4953740444390830e-02  8.4878987966834629e-02  8.4656136354244266e-02  8.4276443924288888e-02  0.0000000000000000e+00  7.0618609032559371e-02  7.0229310392841499e-02  6.9962917180667966e-02  6.9812267429196675e-02  6.9776431468434749e-02  7.6300437794057957e-02  7.6338480647478099e-02  7.6499399917346472e-02  7.6785451785702188e-02  7.7206099463240738e-02  0.0000000000000000e+00  8.5927092594474397e-02  8.6336752220191756e-02  8.6576798918240175e-02  8.6655283477508074e-02  8.6574423179445983e-02  8.6332093320407394e-02  8.5919422056003295e-02  0.0000000000000000e+00  7.7322267899802247e-02  7.6898656435476290e-02  7.6610076949329711e-02  7.6447545097702990e-02  7.6408904992024379e-02  8.2454530550708602e-02  8.2492052430820584e-02  8.2650139463388478e-02  8.2930320287051607e-02  8.3341257508165068e-02  0.0000000000000000e+00  8.8275882288440632e-02  8.8676254730660195e-02  8.8910239960916154e-02  8.8986888363172520e-02  8.8908271812632403e-02  8.8672183798617299e-02  8.8270979660301743e-02  0.0000000000000000e+00  8.3449909498166608e-02  8.3037948939581302e-02  8.2758266488601837e-02  8.2601255155641068e-02  8.2563945056497820e-02  8.8146465490115261e-02  8.8179350207256021e-02  8.8317404338325245e-02  8.8561131055663295e-02  8.8917259108145852e-02  0.0000000000000000e+00  9.1317130853468861e-02  9.1664045665633409e-02  9.1866096776815218e-02  9.1932282198873977e-02  9.1864246274649661e-02  9.1659967734247283e-02  9.1314008911330291e-02  0.0000000000000000e+00  8.9016261424272811e-02  8.8661146719747369e-02  8.8420953025571625e-02  8.8286598737808197e-02  8.8254699507438777e-02  9.3438615604696018e-02  9.3463225243135190e-02  9.3566134375983004e-02  9.3746734990248312e-02  9.4009044197047809e-02  0.0000000000000000e+00  9.4956695995635582e-02  9.5212089283985613e-02  9.5359976413995823e-02  9.5408297312852997e-02  9.5358093698424476e-02  9.5207747707827126e-02  9.4954641232341472e-02  0.0000000000000000e+00  9.4098805886512454e-02  9.3839263230824657e-02  9.3664743149407828e-02  9.3567700740194132e-02  9.3544708508679034e-02  9.8436952681969669e-02  9.8450562448005485e-02  9.8507073979689844e-02  9.8604835332400179e-02  9.8744738342679106e-02  0.0000000000000000e+00  9.9035120336869939e-02  9.9171190190960837e-02  9.9248763680146943e-02  9.9273858031123763e-02  9.9246818042659460e-02  9.9166592064478240e-02  9.9033633750141209e-02  0.0000000000000000e+00  9.8827847718550979e-02  9.8691888434493572e-02  9.8601892869610422e-02  9.8552668974776894e-02  9.8541087874395639e-02  1.0327949667211929e-01  1.0328059346167404e-01  1.0328451502852937e-01  1.0328874594053566e-01  1.0329099303567627e-01  0.0000000000000000e+00  1.0334568065221145e-01  1.0334767701590238e-01  1.0334649621526298e-01  1.0334557249593840e-01  1.0334453368864915e-01  1.0334300003106339e-01  1.0334440678736850e-01  0.0000000000000000e+00  1.0337148373786738e-01  1.0337360497930985e-01  1.0337773567361634e-01  1.0338160048426021e-01  1.0338267598902882e-01  1.0812131447267438e-01  1.0810975404006259e-01  1.0806058528913655e-01  1.0797068598365442e-01  1.0783484804499308e-01  0.0000000000000000e+00  1.0765690283716599e-01  1.0752452482102069e-01  1.0744465308306193e-01  1.0741774146059897e-01  1.0744274586002804e-01  1.0752000395492900e-01  1.0765553417892632e-01  0.0000000000000000e+00  1.0791727330354123e-01  1.0805709111582262e-01  1.0815478159951125e-01  1.0821125424009266e-01  1.0822484717236423e-01  1.1311777324772369e-01  1.1309479528507374e-01  1.1299778516893001e-01  1.1282332097859388e-01  1.1256384541178459e-01  0.0000000000000000e+00  1.1173727934460057e-01  1.1148468638977858e-01  1.1133466101058583e-01  1.1128458709476260e-01  1.1133285376450130e-01  1.1148049622925571e-01  1.1173545454205831e-01  0.0000000000000000e+00  1.1265228083217509e-01  1.1291459364699243e-01  1.1309518815944551e-01  1.1319809705202996e-01  1.1322269991549040e-01  1.1840773915296535e-01  1.1837584017610565e-01  1.1824146987087576e-01  1.1800124819853336e-01  1.1764608582558628e-01  0.0000000000000000e+00  1.1537999807197731e-01  1.1503443797626188e-01  1.1483041595587995e-01  1.1476250028710216e-01  1.1482867474793140e-01  1.1503057923693795e-01  1.1537720617281536e-01  0.0000000000000000e+00  1.1774320295854716e-01  1.1809948027469858e-01  1.1834330647319161e-01  1.1848142229717178e-01  1.1851431737238252e-01  1.2409841560040669e-01  1.2406108214845397e-01  1.2390397703880243e-01  1.2362413174948751e-01  1.2321193664742530e-01  0.0000000000000000e+00  1.1842548226526270e-01  1.1802452639128654e-01  1.1778860852347414e-01  1.1771009272852219e-01  1.1778677573559866e-01  1.1802072602384157e-01  1.1842098955183999e-01  0.0000000000000000e+00  1.2331826637973532e-01  1.2372956372101675e-01  1.2400999604847079e-01  1.2416823530797093e-01  1.2420579406436419e-01  1.3025351911747549e-01  1.3021482179266675e-01  1.3005208795412199e-01  1.2976315847869510e-01  1.2933904982368838e-01  0.0000000000000000e+00  1.2077949435057860e-01  1.2036690131068253e-01  1.2012464310207026e-01  1.2004385640393195e-01  1.2012241912923138e-01  1.2036254717085629e-01  1.2077229012661396e-01  0.0000000000000000e+00  1.2945261309881287e-01  1.2987389839622063e-01  1.3016039943966853e-01  1.3032158656089091e-01  1.3035970142697406e-01  1.3688647684637797e-01  1.3685054197513141e-01  1.3669955969410821e-01  1.3643259011925701e-01  1.3604247141323664e-01  0.0000000000000000e+00  1.2242458727386003e-01  1.2204480087958416e-01  1.2182192035419112e-01  1.2174720982553529e-01  1.2181893604138953e-01  1.2203908082960524e-01  1.2241361856169596e-01  0.0000000000000000e+00  1.3615890114586834e-01  1.3654473908550299e-01  1.3680685040129639e-01  1.3695402411366009e-01  1.3698867156515154e-01  1.4396020178257848e-01  1.4393057569349488e-01  1.4380635698923094e-01  1.4358847274157879e-01  1.4327269334660725e-01  0.0000000000000000e+00  1.2342290254077469e-01  1.2311389995426056e-01  1.2293229438047107e-01  1.2287075119349637e-01  1.2292822320616761e-01  1.2310598816668902e-01  1.2340704706094009e-01  0.0000000000000000e+00  1.4338464319446426e-01  1.4369631146111481e-01  1.4390857266830259e-01  1.4402778588007023e-01  1.4405569967890122e-01  1.5139538219196250e-01  1.5137414872475910e-01  1.5128551027831988e-01  1.5113260561814815e-01  1.5091515207780848e-01  0.0000000000000000e+00  1.2390433695671121e-01  1.2369233803744574e-01  1.2356596453847302e-01  1.2352203589346945e-01  1.2356086389797057e-01  1.2368126183083446e-01  1.2388242098846040e-01  0.0000000000000000e+00  1.5101824028118915e-01  1.5123241419222813e-01  1.5137985371719986e-01  1.5146320459145249e-01  1.5148259404475364e-01  1.5908842444388444e-01  1.5907576785080707e-01  1.5902347997325852e-01  1.5893676084174710e-01  1.5881640867282962e-01  0.0000000000000000e+00  1.2405313206513918e-01  1.2394382237299101e-01  1.2386806774718455e-01  1.2383896660947494e-01  1.2386131336971577e-01  1.2393763793086025e-01  1.2405990297638346e-01  0.0000000000000000e+00  1.5891247485567656e-01  1.5902491941848385e-01  1.5910785428731755e-01  1.5915604784573231e-01  1.5916718740832814e-01  1.6693625858967390e-01  1.6693011742833072e-01  1.6690516267472377e-01  1.6686611022926112e-01  1.6681906332333873e-01  0.0000000000000000e+00  1.2415160080022837e-01  1.2403295267341169e-01  1.2396213619845023e-01  1.2393671492476591e-01  1.2396056837502969e-01  1.2402399263177892e-01  1.2405919468887523e-01  0.0000000000000000e+00  1.6689027015479513e-01  1.6694250546494024e-01  1.6697999524701085e-01  1.6700235372932232e-01  1.6700744855837427e-01  1.7486066008244758e-01  1.7485817194170383e-01  1.7484865301572552e-01  1.7483535704552963e-01  1.7482408187539547e-01  0.0000000000000000e+00  0.0000000000000000e+00  0.0000000000000000e+00  0.0000000000000000e+00  0.0000000000000000e+00  0.0000000000000000e+00  0.0000000000000000e+00  0.0000000000000000e+00  0.0000000000000000e+00  1.7489901491522669e-01  1.7490743679183973e-01  1.7491594250387874e-01  1.7492256111707827e-01  1.7492399574455567e-01  1.8281624980300479e-01  1.8281524154624729e-01  1.8281175776843928e-01  1.8280650036170315e-01  1.8280069825651318e-01  0.0000000000000000e+00  0.0000000000000000e+00  0.0000000000000000e+00  0.0000000000000000e+00  0.0000000000000000e+00  0.0000000000000000e+00  0.0000000000000000e+00  0.0000000000000000e+00  0.0000000000000000e+00  1.8286532767956226e-01  1.8286514437157408e-01  1.8286656487711855e-01  1.8286757162018288e-01  1.8286750095017312e-01  1.9078160875440781e-01  1.9078554430229530e-01  1.9078267295526671e-01  1.9077675534400601e-01  1.9077519703065510e-01  0.0000000000000000e+00  0.0000000000000000e+00  0.0000000000000000e+00  0.0000000000000000e+00  0.0000000000000000e+00  0.0000000000000000e+00  0.0000000000000000e+00  0.0000000000000000e+00  0.0000000000000000e+00  1.9081667814134312e-01  1.9082111448995376e-01  1.9082017882201061e-01  1.9081641363831686e-01  1.9081669179488017e-01  1.9878970584793221e-01  1.9877197394261908e-01  1.9874863208584589e-01  1.9874179375458101e-01  1.9874785911733672e-01  0.0000000000000000e+00  0.0000000000000000e+00  0.0000000000000000e+00  0.0000000000000000e+00  0.0000000000000000e+00  0.0000000000000000e+00  0.0000000000000000e+00  0.0000000000000000e+00  0.0000000000000000e+00  1.9880427218608421e-01  1.9878866249593671e-01  1.9876791591642989e-01  1.9876321448877277e-01  1.9877139334792604e-01  2.0693741249026165e-01  2.0669785906302690e-01  2.0670729034245749e-01  2.0669376609700343e-01  2.0652560474682596e-01  0.0000000000000000e+00  0.0000000000000000e+00  0.0000000000000000e+00  0.0000000000000000e+00  0.0000000000000000e+00  0.0000000000000000e+00  0.0000000000000000e+00  0.0000000000000000e+00  0.0000000000000000e+00  2.0692625567997616e-01  2.0669773198431943e-01  2.0670758257293101e-01  2.0669383779742581e-01  2.0653195483416037e-01  </DataArray> 
</PointData> 
</Piece>
</UnstructuredGrid>
</VTKFile>