<?xml version="1.0"?>
<VTKFile type="UnstructuredGrid"  version="0.1"  >
<UnstructuredGrid>
<Piece  NumberOfPoints="589" NumberOfCells="1080">
<Points>
<DataArray  type="Float64"  NumberOfComponents="3"  format="ascii">-9 0 0  -8 0 0  -7 0 0  -6 0 0  -5 0 0  -4 0 0  -3 0 0  -2 0 0  -1 0 0  0 0 0  1 0 0  2 0 0  3 0 0  4 0 0  5 0 0  6 0 0  7 0 0  8 0 0  9 0 0  -9 2 0  -8.000006196894065 1.999990160022591 0  -7.000013023794133 1.999981573940251 0  -6.000021987042413 1.999975265159701 0  -5.000036549725537 1.999971698058882 0  -4.000021144362726 1.99997869162509 0  -3.000005320840717 1.999985557027403 0  -1.999997701824359 1.999992096998107 0  -0.9999966468627721 1.999997260466279 0  3.248615455621215e-07 1.999999483635717 0  0.9999970678498322 1.999997791689319 0  1.999997350922724 1.999992546705044 0  3.000003728467231 1.999986094809878 0  4.000017051510361 1.999979088711869 0  5.000036509042597 1.999975876524477 0  6.000022244761523 1.999977037532318 0  7.000013321616479 1.999982348595537 0  8.000006384692874 1.999990461140783 0  9 2 0  -9.000000000004983 4 0  -8.000009873653537 3.99997530502714 0  -7.000017502244821 3.999954039087438 0  -6.000021576291871 3.999939563828108 0  -5.000022382075865 3.999935088807142 0  -3.99999959714445 3.999938254768334 0  -2.99998437434809 3.999957901387961 0  -1.999980592739055 3.99998357155229 0  -0.9999867428092885 4.000004225095652 0  1.718182672870756e-06 4.000012433560439 0  0.9999899859127556 4.000005567095917 0  1.999983201971493 3.999987391085062 0  2.99998653390469 3.999962769799785 0  4.000001583395556 3.999937795871455 0  5.000024584099038 3.999928728073634 0  6.000023124824911 3.999937475279576 0  7.000018698156499 3.999953491947962 0  8.000010560180803 3.999975217729741 0  9 4 0  -9 6 0  -8.00002252995152 5.999946736740667 0  -7.000036198822925 5.999899344158242 0  -6.000034238544479 5.999863864126677 0  -5.000014691399438 5.99984610810231 0  -3.999969751160563 5.999875205603984 0  -2.999949353123058 5.999936449954578 0  -1.999957498480395 6.000000760344806 0  -0.9999778141372333 6.000036589640386 0  1.501896222277028e-06 6.000043659146973 0  0.9999827819864671 6.000031682501341 0  1.999968453219859 5.999998752139301 0  2.999963097424886 5.999943121479222 0  3.999973993085114 5.99988523482503 0  5.000013118628091 5.999855992615389 0  6.000035874435745 5.999868837755412 0  7.000038919073572 5.999901801832263 0  8.000024423241493 5.999947751211186 0  9 6 0  -9 8 0  -8.000070622435208 7.999894699463034 0  -7.00011740689082 7.999797013344522 0  -6.000117245058172 7.999717282663328 0  -5.00005031589095 7.999672547754341 0  -3.999963198669439 7.999807847653184 0  -2.999978755827007 7.999967080660277 0  -2.000011092796294 8.000045039564071 0  -1.000013825852439 8.000054367102235 0  5.498229134696515e-06 8.000057162555068 0  1.000019711939146 8.000065074057858 0  2.000013192392264 8.000031591473014 0  2.999974405920333 7.999974709601331 0  3.999961110562541 7.999834425906242 0  5.000048120120075 7.999676176290547 0  6.000127458250926 7.999719744892191 0  7.000129289638513 7.999798186214989 0  8.000077985362012 7.999895098976022 0  9 8 0  -9 10 0  -8.000213999976754 9.999812258441969 0  -7.000386327541428 9.999622944174231 0  -6.00046725134867 9.999430856260407 0  -5.000387478943364 9.999235675169551 0  -4.00024950643947 9.999672257619064 0  -3.000271153915727 10.0000479695338 0  -2.000214913772748 9.99998461892085 0  -1.00009379708597 9.999964290183801 0  -4.140424229744533e-06 9.999959309653102 0  1.000085134244017 9.999959538254663 0  2.000204551532708 9.999956572850452 0  3.000308863122838 10.00009401157133 0  4.000294849861475 9.999728022507643 0  5.000455419456067 9.999245253977515 0  6.000528919620479 9.999431277064668 0  7.000432108068455 9.999620749778412 0  8.00023820954631 9.999810534920154 0  9 10 0  -9 12 0  -8.000523757617513 11.99973622324197 0  -7.001020357036838 11.99946016363135 0  -6.001459062457663 11.99915714093393 0  -5.001801686138708 11.99880670410928 0  -4.001730962032255 11.9996020103471 0  -3.001793475491838 12.00038923395892 0  -2.00121730939151 12.00029641142329 0  -1.000578379108009 12.00024738872466 0  8.369584901430643e-05 12.00024011699758 0  1.000750957687258 12.00027645426468 0  2.001407836712152 12.00036632701654 0  3.002023410230593 12.00053435965124 0  4.001952959246764 11.99965389659941 0  5.002000746329445 11.99876599932658 0  6.001610885645734 11.99912927988254 0  7.001122902251411 11.99944222886118 0  8.000575449790402 11.99972735355353 0  9 12 0  -9 14 0  -8.0009415101398 13.99970944923551 0  -7.001884940212546 13.99940546020084 0  -6.00283345014001 13.99907341061553 0  -5.003793403842704 13.99869635535685 0  -4.003803134174492 13.99962449311429 0  -3.003807623689938 14.00056422892957 0  -2.002471968697889 14.00043324427115 0  -1.001156047300097 14.00036369609417 0  0.0001509823286985949 14.00034668789272 0  1.001459320279268 14.00037947831395 0  2.002778217817176 14.00046380321152 0  3.004114597076268 14.00060418336438 0  4.004123723149918 13.99961936289854 0  5.004131667851004 13.99864035063963 0  6.003083708705267 13.99902914485857 0  7.002050614004703 13.99937532638581 0  8.001024080310012 13.99969426166137 0  9 14 0  -9 16 0  -8.00135071403853 15.99973651454232 0  -7.002727770580152 15.99946318208803 0  -6.004159752259963 15.99916997904378 0  -5.005679825455991 15.99884668683191 0  -4.005734234080143 15.99963534057484 0  -3.005681579377236 16.00041962374949 0  -2.00364996854226 16.00032504386106 0  -1.001699121189247 16.00027042014413 0  0.0002131221337156433 16.00025458840287 0  1.002126578674125 16.00027688387759 0  2.004081017209211 16.0003375801736 0  3.00611868718374 16.00043768781984 0  4.006176318605039 15.99959373044304 0  5.006126583254831 15.99874896375678 0  6.004494300477676 15.99909983206282 0  7.002950396457069 15.99941766882132 0  8.001461888386183 15.99971409521426 0  9 16 0  -9 18 0  -8.001653631178748 17.99980299051002 0  -7.003349257080187 17.99960047802623 0  -6.005131039540281 17.99938705292994 0  -5.007047460240257 17.99915751588028 0  -4.007129908036245 17.9996370977794 0  -3.007049266091947 18.00011586527788 0  -2.004507840954441 18.00005761164519 0  -1.002089131111289 18.00002259341628 0  0.0002704015778758498 18.00001059188335 0  1.002631229217617 18.00002128694177 0  2.005053741080721 18.00005429023264 0  3.007601196736147 18.00010902658871 0  4.007686126298338 17.9995744149749 0  5.007605775377785 17.99904112619098 0  6.00554819115586 17.9993028878197 0  7.003626587936446 17.99954580242647 0  8.001792065469822 17.9997760712329 0  9 18 0  -9 20 0  -8.001787720888444 19.99989146508891 0  -7.003624431173286 19.99978144878688 0  -6.005560992055889 19.99966862856934 0  -5.007652011273484 19.99955199491457 0  -4.007746228743797 19.99963615698621 0  -3.00765209871494 19.9997194309434 0  -2.004878188823501 19.99969768000593 0  -1.002243997937626 19.99968315877517 0  0.0003224734166733114 19.99967626605832 0  1.002890640626991 19.99967690123496 0  2.00552991314069 19.99968448229758 0  3.008312285718979 19.99969790114563 0  4.008408758753791 19.9995646011859 0  5.008314058146499 19.99943216883333 0  6.006054865336445 19.99958140376879 0  7.003952422497174 19.99972455500358 0  8.001951341932903 19.99986339436604 0  8.999999999982878 19.99999999999612 0  -9 22 0  -8.001725062933646 21.99998585121419 0  -7.003498516434387 21.99997363554202 0  -6.005370281938037 21.99996546768838 0  -5.007393331130179 21.99996382995063 0  -4.00748556882406 21.99963145106291 0  -3.007393031556377 21.99929810138524 0  -2.004693067411341 21.99930898006757 0  -1.002129579621802 21.99931337518737 0  0.0003677841315495799 21.99931199504507 0  1.002867268827 21.99930488786889 0  2.005437138200267 21.99929145441816 0  3.008147804368393 21.9992704356885 0  4.008241302773978 21.99956128865785 0  5.008146160913219 21.9998525748347 0  6.005931368548644 21.99988424498678 0  7.00387089719904 21.99992053755506 0  8.001910749283821 21.99995961709418 0  9 22 0  -9 24 0  -8.001468019903394 24.00007250899453 0  -7.002977614467651 24.00014963603659 0  -6.004571541376154 24.00023618848655 0  -5.006294866154509 24.00033736488337 0  -4.006374206912859 23.99962321870337 0  -3.006295172722429 23.99890818167342 0  -2.003965369400752 23.99894608297471 0  -1.00175219451017 23.998966569965 0  0.0004047050661509684 23.99897050960629 0  1.002564086282806 23.99895804928023 0  2.00478473655396 23.99892862014546 0  3.007127102371414 23.99888093211145 0  4.007205956658382 23.99956286650607 0  5.00712188784168 24.00024498262362 0  6.005187553284622 24.00016857164751 0  7.003386269722551 24.00010535238961 0  8.001671739368378 24.00005060565396 0  9 24 0  -9 26 0  -8.001043732435527 26.00014071560983 0  -7.002117506976867 26.00028795141261 0  -6.003252204497828 26.00044842211337 0  -5.00448023027965 26.00062924262676 0  -4.004538322314007 25.99961198096264 0  -3.004481812151234 25.99859399421506 0  -2.002774378396122 25.99865253891839 0  -1.001151166861372 25.99868565177933 0  0.0004318416990893944 25.99869431945047 0  1.002017586408337 25.99867877489565 0  2.003649043195102 25.99863849852711 0  3.005370330093362 25.99857221603206 0  4.00542581480457 25.99956779940335 0  5.005361656143867 26.0005633705706 0  6.003908537469094 26.00040012318819 0  7.002552814870899 26.00025627822147 0  8.001260708739133 26.00012503651102 0  9 26 0  -9 28 0  -8.000498165749075 28.0001828643211 0  -7.001011690075353 28.000373345364 0  -6.001556403426256 28.00057925869319 0  -5.002148868584242 28.00080882328406 0  -4.002179994337678 27.99959873350092 0  -3.002151961098051 27.99838818949155 0  -2.001249665331154 27.99846039866329 0  -1.000390755996511 27.99850218799115 0  0.0004481718108423811 27.99851464757976 0  1.001289971699549 27.99849809088779 0  2.00215752958158 27.99845205552932 0  3.003074348117968 27.99837530181775 0  4.003100812037611 27.99957497078936 0  5.00306280465247 28.00077453738837 0  6.002236872405567 28.00055407750559 0  7.001462973641482 28.00035681106349 0  8.00072
[...]
<PointData  Scalars="f_44-1"> 
<DataArray  type="Float64"  Name="f_44-1"  format="ascii">1.1038520521545875e-03  -2.2516545541416782e-06  4.0702870051402626e-05  -2.7518680174066958e-05  -6.5277096703928741e-04  0.0000000000000000e+00  0.0000000000000000e+00  0.0000000000000000e+00  0.0000000000000000e+00  0.0000000000000000e+00  0.0000000000000000e+00  0.0000000000000000e+00  0.0000000000000000e+00  0.0000000000000000e+00  1.1016762504879229e-03  4.6456276820697272e-06  4.6693181998542954e-05  -3.3978446589400835e-05  -6.5196276807397060e-04  7.0420486211526759e-02  7.0429470711663097e-02  7.0250295951486019e-02  7.0006090698299661e-02  6.9906663402359820e-02  0.0000000000000000e+00  0.0000000000000000e+00  0.0000000000000000e+00  0.0000000000000000e+00  0.0000000000000000e+00  0.0000000000000000e+00  0.0000000000000000e+00  0.0000000000000000e+00  0.0000000000000000e+00  7.0132879045573707e-02  7.0127780490096853e-02  6.9937613580528954e-02  6.9696305846053033e-02  6.9597852638067045e-02  1.4048214497188527e-01  1.4045774740738015e-01  1.4041006993489313e-01  1.4037007620935682e-01  1.4039522602608867e-01  0.0000000000000000e+00  0.0000000000000000e+00  0.0000000000000000e+00  0.0000000000000000e+00  0.0000000000000000e+00  0.0000000000000000e+00  0.0000000000000000e+00  0.0000000000000000e+00  0.0000000000000000e+00  1.3986214703627184e-01  1.3987654513605785e-01  1.3985823260197286e-01  1.3981713188690298e-01  1.3982307627424642e-01  2.1066667411464199e-01  2.1067646472690427e-01  2.1070544351393453e-01  2.1074277550142292e-01  2.1075231202618494e-01  0.0000000000000000e+00  0.0000000000000000e+00  0.0000000000000000e+00  0.0000000000000000e+00  0.0000000000000000e+00  0.0000000000000000e+00  0.0000000000000000e+00  0.0000000000000000e+00  0.0000000000000000e+00  2.0979514210461447e-01  2.0978981877699346e-01  2.0979799300808799e-01  2.0980748902765439e-01  2.0981522992214383e-01  2.8086710744864102e-01  2.8085483826417645e-01  2.8079366285635937e-01  2.8066393719246180e-01  2.8058555162394122e-01  0.0000000000000000e+00  0.0000000000000000e+00  0.0000000000000000e+00  0.0000000000000000e+00  0.0000000000000000e+00  0.0000000000000000e+00  0.0000000000000000e+00  0.0000000000000000e+00  0.0000000000000000e+00  2.7963069274548880e-01  2.7972955469727290e-01  2.7977603986237826e-01  2.7979946434560943e-01  2.7981320405499521e-01  3.5117348492857353e-01  3.5116681505144659e-01  3.5113579672351808e-01  3.5112679806246105e-01  3.5109631500899868e-01  0.0000000000000000e+00  1.1198848802263115e+00  1.1197641896021331e+00  1.1196685341754120e+00  1.1195830555669442e+00  1.1196802702519637e+00  1.1198609692255137e+00  1.1195733908870342e+00  0.0000000000000000e+00  3.4977884249361918e-01  3.4981957824313265e-01  3.4982748389008395e-01  3.4984588793256527e-01  3.4985835794029796e-01  4.2157830263450918e-01  4.2156882719108368e-01  4.2151573021277761e-01  4.2143917793970376e-01  4.2125101685059513e-01  0.0000000000000000e+00  1.1197341747327372e+00  1.1194866816909510e+00  1.1193419501768533e+00  1.1192968155689824e+00  1.1193720204036117e+00  1.1195100893823897e+00  1.1198558601949316e+00  0.0000000000000000e+00  4.1971332909550291e-01  4.1983973980099337e-01  4.1992132317314335e-01  4.1996095988974458e-01  4.1997565232211587e-01  4.9217448828674099e-01  4.9215771266408498e-01  4.9205559308320446e-01  4.9187828405300538e-01  4.9156024085130479e-01  0.0000000000000000e+00  1.1192076850930837e+00  1.1188402847228403e+00  1.1186080025358021e+00  1.1185439281582463e+00  1.1186360035300087e+00  1.1188848654271144e+00  1.1192730381688127e+00  0.0000000000000000e+00  4.8963653482374414e-01  4.8995053737379823e-01  4.9013177974425709e-01  4.9024135434786376e-01  4.9026628669857442e-01  5.6313285655267609e-01  5.6310504139063644e-01  5.6293688171458245e-01  5.6262934743289272e-01  5.6212861690395732e-01  0.0000000000000000e+00  1.1180943976437949e+00  1.1175568443814805e+00  1.1172447276567183e+00  1.1171538425935339e+00  1.1172786385997897e+00  1.1176214848558970e+00  1.1182072748348955e+00  0.0000000000000000e+00  5.5982321200367624e-01  5.6035613929243333e-01  5.6069565373423080e-01  5.6088378380842074e-01  5.6092273550319338e-01  6.3466038041323081e-01  6.3462125491424559e-01  6.3439043570332176e-01  6.3396351769411652e-01  6.3330726365325984e-01  0.0000000000000000e+00  1.1160753421054137e+00  1.1154049431210797e+00  1.1150137683084940e+00  1.1148954762027778e+00  1.1150453737208335e+00  1.1154663594224363e+00  1.1161757454920391e+00  0.0000000000000000e+00  6.3071037566770816e-01  6.3140930868148548e-01  6.3187132166666748e-01  6.3212704641017203e-01  6.3217748656256789e-01  7.0694271967862488e-01  7.0689527262418006e-01  7.0662151501790782e-01  7.0611520464079414e-01  7.0536765516070732e-01  0.0000000000000000e+00  1.1128692921769958e+00  1.1121342980633002e+00  1.1117091634218121e+00  1.1115803953008556e+00  1.1117423687307113e+00  1.1121998883302728e+00  1.1129690457947605e+00  0.0000000000000000e+00  7.0253773474367742e-01  7.0333666254317140e-01  7.0387759509460157e-01  7.0417606650174880e-01  7.0423378593592811e-01  7.8009854100311526e-01  7.8004768009082359e-01  7.7975971461394322e-01  7.7922880476635348e-01  7.7847107925143966e-01  0.0000000000000000e+00  1.1083730350646355e+00  1.1076542524494577e+00  1.1072411424237940e+00  1.1071158615973591e+00  1.1072743249638055e+00  1.1077224358925410e+00  1.1084722041792028e+00  0.0000000000000000e+00  7.7547289067824987e-01  7.7628664012427895e-01  7.7684937338789328e-01  7.7715948861715012e-01  7.7721964840888047e-01  8.5415403161568804e-01  8.5410545368432267e-01  8.5383516455693353e-01  8.5333911482758107e-01  8.5265600126025276e-01  0.0000000000000000e+00  1.1026124734457246e+00  1.1019906777399331e+00  1.1016366468645111e+00  1.1015306715199973e+00  1.1016704387416432e+00  1.1020620125612250e+00  1.1027118587596956e+00  0.0000000000000000e+00  8.4955585518374588e-01  8.5029624560834594e-01  8.5081953495789941e-01  8.5110789778939744e-01  8.5116482575761154e-01  9.2903523076676497e-01  9.2899448462184953e-01  9.2877214363114025e-01  9.2836675676484970e-01  9.2783532239814914e-01  0.0000000000000000e+00  1.0957568313074277e+00  1.0953023594754916e+00  1.0950481862265868e+00  1.0949750185254665e+00  1.0950825544001150e+00  1.0953763882550751e+00  1.0958567963274690e+00  0.0000000000000000e+00  9.2469720754178231e-01  9.2528456888902244e-01  9.2571191115343854e-01  9.2594748616508948e-01  9.2599560673672043e-01  1.0045750227039403e+00  1.0045467559385122e+00  1.0043972121703670e+00  1.0041278874047015e+00  1.0038082193654090e+00  0.0000000000000000e+00  1.0880963606386196e+00  1.0878607503809963e+00  1.0877360151227502e+00  1.0877054395466512e+00  1.0877707290423311e+00  1.0879364609726696e+00  1.0881965911485945e+00  0.0000000000000000e+00  1.0006918209853433e+00  1.0010639515573225e+00  1.0013499039770488e+00  1.0015077605121478e+00  1.0015424710829433e+00  1.0805318105271624e+00  1.0805192365615379e+00  1.0804591127750183e+00  1.0803558785197920e+00  1.0802845006465103e+00  0.0000000000000000e+00  1.0800094574763106e+00  1.0800199479971626e+00  1.0800398656696386e+00  1.0800569011317647e+00  1.0800745472950299e+00  1.0800959407501241e+00  1.0801092428242991e+00  0.0000000000000000e+00  1.0772431970514531e+00  1.0773619293158652e+00  1.0774769461985285e+00  1.0775409153971172e+00  1.0775591733158782e+00  1.1566167330375066e+00  1.1566212146419488e+00  1.1566571239465291e+00  1.1567315577749264e+00  1.1569176205843827e+00  0.0000000000000000e+00  1.0719208733035746e+00  1.0721776936401226e+00  1.0723415890611434e+00  1.0724059943497086e+00  1.0723758060371478e+00  1.0722524347742062e+00  1.0720193849774835e+00  0.0000000000000000e+00  1.1539971586214355e+00  1.1538520965388637e+00  1.1537854032063752e+00  1.1537496558094942e+00  1.1537502986129275e+00  1.2325252593401232e+00  1.2325463734681905e+00  1.2326744079442438e+00  1.2329186885672907e+00  1.2333430871115141e+00  0.0000000000000000e+00  1.0642553581372503e+00  1.0647318477156529e+00  1.0650233212293612e+00  1.0651296767609779e+00  1.0650567085767710e+00  1.0648039500697835e+00  1.0643519508962498e+00  0.0000000000000000e+00  1.2305806957668626e+00  1.2301899918903410e+00  1.2299504677378368e+00  1.2298199815391770e+00  1.2298037977875549e+00  1.3079722984288882e+00  1.3080074926823646e+00  1.3082134784270063e+00  1.3086008835092451e+00  1.3092180521020056e+00  0.0000000000000000e+00  1.0573913563310064e+00  1.0580368646872942e+00  1.0584256094790985e+00  1.0585639481297711e+00  1.0584579657454738e+00  1.0581053512721124e+00  1.0574858578336441e+00  0.0000000000000000e+00  1.3066419324082614e+00  1.3060503599899185e+00  1.3056654629004307e+00  1.3054552883348147e+00  1.3054248609360490e+00  1.3827190166334542e+00  1.3827650093038282e+00  1.3830264608240341e+00  1.3835149095518107e+00  1.3842578514183814e+00  0.0000000000000000e+00  1.0516192856816160e+00  1.0523648064346800e+00  1.0528099368995163e+00  1.0529668455321584e+00  1.0528412951215120e+00  1.0524293227663608e+00  1.0517123235576114e+00  0.0000000000000000e+00  1.3818884864975489e+00  1.3811623833641229e+00  1.3806745492437864e+00  1.3804081535533821e+00  1.3803675151693373e+00  1.4566095301249657e+00  1.4566598699688804e+00  1.4569469533348642e+00  1.4574831985672045e+00  1.4582723484496152e+00  0.0000000000000000e+00  1.0471092567076798e+00  1.0478749470182736e+00  1.0483298164151076e+00  1.0484902860473688e+00  1.0483609167756012e+00  1.0479362356582962e+00  1.0472020423494541e+00  0.0000000000000000e+00  1.4561199244569261e+00  1.4553368332356766e+00  1.4548000843845013e+00  1.4545064979613438e+00  1.4544606250699252e+00  1.5295644754443469e+00  1.5296156733344637e+00  1.5299022121685943e+00  1.5304329807266523e+00  1.5311831515854206e+00  0.0000000000000000e+00  1.0438897763321162e+00  1.0445970033987402e+00  1.0450161139961871e+00  1.0451647316469093e+00  1.0450455135964718e+00  1.0446538620498338e+00  1.0439830368110619e+00  0.0000000000000000e+00  1.5292352481012648e+00  1.5284909597847767e+00  1.5279608219923155e+00  1.5276705286755334e+00  1.5276243545402028e+00  1.6016275227663168e+00  1.6016767286569460e+00  1.6019251849616456e+00  1.6023744555150901e+00  1.6029925425446250e+00  0.0000000000000000e+00  1.0418480165764208e+00  1.0424330766755598e+00  1.0427750233541797e+00  1.0428988706897202e+00  1.0428068319030919e+00  1.0424931830758075e+00  1.0419538799331816e+00  0.0000000000000000e+00  1.6013228813080156e+00  1.6006483272676235e+00  1.6001754626709148e+00  1.5999171444144129e+00  1.5998758769762453e+00  1.6728891012105118e+00  1.6729224772387392e+00  1.6731203069879452e+00  1.6735193450344867e+00  1.6740405808088437e+00  0.0000000000000000e+00  1.0407764712353929e+00  1.0411649533159029e+00  1.0414137285925493e+00  1.0415051737753231e+00  1.0414398248300700e+00  1.0412051287741253e+00  1.0408354230422527e+00  0.0000000000000000e+00  1.6723542774537550e+00  1.6719166318428484e+00  1.6715571073210345e+00  1.6713554225639098e+00  1.6713212468610730e+00  1.7435232166637196e+00  1.7435613735914866e+00  1.7437199053707493e+00  1.7439872656156505e+00  1.7442530081371126e+00  0.0000000000000000e+00  1.0401925282595268e+00  1.0405398989289958e+00  1.0406778306382192e+00  1.0407523974456072e+00  1.0407063683893651e+00  1.0405605855037923e+00  1.0403117286587236e+00  0.0000000000000000e+00  1.7429668444744901e+00  1.7425626611196408e+00  1.7422988597274343e+00  1.7421592656727385e+00  1.7421387258094228e+00  1.8137867228288194e+00  1.8137847125906514e+00  1.8138460463384536e+00  1.8139083619864074e+00  1.8140267763161855e+00  0.0000000000000000e+00  1.0404838732248474e+00  1.0401921277769541e+00  1.0403710371579271e+00  1.0404673059234955e+00  1.0403822944732257e+00  1.0402880167050090e+00  1.0401669026501041e+00  0.0000000000000000e+00  1.8126958439449152e+00  1.8126605664050557e+00  1.8126001879860625e+00  1.8125545010362689e+00  1.8125366669071465e+00  1.8836785199135073e+00  1.8837204781925014e+00  1.8837434016648915e+00  1.8837911006980919e+00  1.8838808798168871e+00  0.0000000000000000e+00  0.0000000000000000e+00  0.0000000000000000e+00  0.0000000000000000e+00  0.0000000000000000e+00  0.0000000000000000e+00  0.0000000000000000e+00  0.0000000000000000e+00  0.0000000000000000e+00  1.8826677411684156e+00  1.8827124037782912e+00  1.8827198986029883e+00  1.8827362514273234e+00  1.8827717623141218e+00  1.9539192141398365e+00  1.9538981174619880e+00  1.9539137278916554e+00  1.9539298306305701e+00  1.9539002641774603e+00  0.0000000000000000e+00  0.0000000000000000e+00  0.0000000000000000e+00  0.0000000000000000e+00  0.0000000000000000e+00  0.0000000000000000e+00  0.0000000000000000e+00  0.0000000000000000e+00  0.0000000000000000e+00  1.9531709302568299e+00  1.9531399502786564e+00  1.9531558970008036e+00  1.9531721122969452e+00  1.9531441896499986e+00  2.0233700637237706e+00  2.0232883064945844e+00  2.0233057862013917e+00  2.0232898071648910e+00  2.0231980944096555e+00  0.0000000000000000e+00  0.0000000000000000e+00  0.0000000000000000e+00  0.0000000000000000e+00  0.0000000000000000e+00  0.0000000000000000e+00  0.0000000000000000e+00  0.0000000000000000e+00  0.0000000000000000e+00  2.0228594793365420e+00  2.0227933243643714e+00  2.0228138838852465e+00  2.0228026371454995e+00  2.0227198714904358e+00  2.0928640094245736e+00  2.0936776749697805e+00  2.0941799358195063e+00  2.0945706321965152e+00  2.0952870885940338e+00  0.0000000000000000e+00  0.0000000000000000e+00  0.0000000000000000e+00  0.0000000000000000e+00  0.0000000000000000e+00  0.0000000000000000e+00  0.0000000000000000e+00  0.0000000000000000e+00  0.0000000000000000e+00  2.0926836351372384e+00  2.0934571934468935e+00  2.0939339186756900e+00  2.0943026241048037e+00  2.0949918467495330e+00  2.1669189172880321e+00  2.1637348493235575e+00  2.1628772898847282e+00  2.1635277416825236e+00  2.1617696412082110e+00  0.0000000000000000e+00  0.0000000000000000e+00  0.0000000000000000e+00  0.0000000000000000e+00  0.0000000000000000e+00  0.0000000000000000e+00  0.0000000000000000e+00  0.0000000000000000e+00  0.0000000000000000e+00  2.1669128602788277e+00  2.1637388960554076e+00  2.1628817421112623e+00  2.1635280620013888e+00  2.1617801622766479e+00  </DataArray> 
</PointData> 
</Piece>
</UnstructuredGrid>
</VTKFile>