<?xml version="1.0"?>
<VTKFile type="UnstructuredGrid"  version="0.1"  >
<UnstructuredGrid>
<Piece  NumberOfPoints="589" NumberOfCells="1080">
<Points>
<DataArray  type="Float64"  NumberOfComponents="3"  format="ascii">-9 0 0  -8 0 0  -7 0 0  -6 0 0  -5 0 0  -4 0 0  -3 0 0  -2 0 0  -1 0 0  0 0 0  1 0 0  2 0 0  3 0 0  4 0 0  5 0 0  6 0 0  7 0 0  8 0 0  9 0 0  -9 2 0  -8.000004278945918 1.999993711567313 0  -7.000008968430187 1.999988187615339 0  -6.000015031091091 1.99998404786354 0  -5.000024665614207 1.999981560986359 0  -4.000014755113749 1.999986264960771 0  -3.000004555057955 1.999990664532471 0  -1.999999543568131 1.999994768545453 0  -0.9999986283650014 1.999998014264639 0  -2.763184905204515e-07 1.999999451184904 0  0.9999978732090238 1.999998505422371 0  1.999998105631284 1.999995420034949 0  3.000001950206491 1.999991644162255 0  4.000009863739179 1.999987642835542 0  5.000021276369932 1.999986139971854 0  6.000012780518246 1.999986661285486 0  7.000007578653528 1.999989689078289 0  8.000003614042068 1.9999944126111 0  9 2 0  -9 4 0  -8.000006915683125 3.99998436543331 0  -7.000012444160157 3.999970838596044 0  -6.000015774705453 3.999961484318553 0  -5.000017074136537 3.999958271581231 0  -4.000002729349546 3.999960497407289 0  -2.99999307215074 3.999972811233882 0  -1.99999046307728 3.999988815203974 0  -0.9999939705335572 4.000001690918976 0  -8.13281916892836e-07 4.00000691956866 0  0.9999921837521204 4.000002979635487 0  1.999988129478871 3.99999221987825 0  2.999990126681679 3.99997766173809 0  3.999999111640639 3.999963096075467 0  5.000012816733912 3.999958455661149 0  6.000012385041541 3.999963296791118 0  7.000010208240337 3.999972595422592 0  8.000005825719851 3.99998537003325 0  9 4 0  -9 6 0  -8.000015100965232 5.999966589454263 0  -7.000024711595448 5.999936800327004 0  -6.000024642789054 5.999914355559408 0  -5.000013695916082 5.999902821005629 0  -3.999985837877767 5.999921083187289 0  -2.999973129302844 5.999959102860252 0  -1.999978054332264 5.999998930673872 0  -0.9999904196270117 6.000021066328034 0  -2.908723707474239e-06 6.000025560011654 0  0.9999859027610073 6.000018496078315 0  1.999977415349418 5.99999889346201 0  2.999974277090221 5.999965786889444 0  3.999980844527157 5.999931526950758 0  5.000004404965692 5.999914738027681 0  6.000018969985762 5.999922103188074 0  7.000021660424864 5.999941598877333 0  8.000013809784864 5.999968907006267 0  9 6 0  -9 8 0  -8.000045244640566 7.9999343327253 0  -7.000075694914492 7.999873389906189 0  -6.000077022087727 7.999823591146012 0  -5.000036978816888 7.999795517198339 0  -3.999983130369828 7.999879512774515 0  -2.999993082022339 7.999978196024047 0  -2.000013318105746 8.000026246103619 0  -1.00001506584653 8.000031663784307 0  -3.051983325168304e-06 8.000033222658999 0  1.000005996891753 8.000037997842579 0  2.000002449665991 8.000018171674059 0  2.999979384540656 7.99998439249582 0  3.999971710694902 7.999900668053145 0  5.000024230802096 7.999806236023823 0  6.000073049526439 7.999832394644105 0  7.000075272674776 7.999879358046021 0  8.000045626795783 7.999937308649118 0  9 8 0  -9 10 0  -8.000134540943854 9.999883198189032 0  -7.000243143295648 9.999765433965759 0  -6.000294857973895 9.999645978544848 0  -5.000246605198036 9.999524648334651 0  -4.000161151404282 9.999795952368727 0  -3.000175200895924 10.00002927283585 0  -2.000140692989257 9.99998896408249 0  -1.000065748797246 9.999976035508308 0  -1.063442169521859e-05 9.999972890128017 0  1.000043951205884 9.999973149835919 0  2.000116451713754 9.99997177891025 0  3.000180437715239 10.00005479211084 0  4.000172782026874 9.999835977912406 0  5.000268898951237 9.999547378035874 0  6.000313459027132 9.999659507281317 0  7.000256328082961 9.999773190909776 0  8.00014134595933 9.999886761548982 0  9 10 0  -9 12 0  -8.000327476445721 11.99983595607365 0  -7.000637954465171 11.9996643149708 0  -6.000912204088589 11.9994759908184 0  -5.001126400142963 11.99925830789907 0  -4.001082458948811 11.99975338344899 0  -3.001121934150079 12.00024360974938 0  -2.000773487704666 12.00018397137342 0  -1.000385291209736 12.00015138169843 0  1.809962274688235e-05 12.00014447550286 0  1.000425774673612 12.00016423273918 0  2.000828601943493 12.00021653320777 0  3.001208555473091 12.000316136927 0  4.001167422743934 11.99979155877414 0  5.001195136176944 11.99926273994679 0  6.00096037598903 11.99948049483161 0  7.000668659870127 11.99966753252173 0  8.000342441992716 11.99983757838215 0  9 12 0  -9 14 0  -8.00058816767022 13.99981915107579 0  -7.001177298397317 13.99963001193672 0  -6.001769113242728 13.99942356045796 0  -5.002367355907334 13.99918934102863 0  -4.002373121850456 13.99976875537278 0  -3.002376682263803 14.00035551714345 0  -2.001565730265351 14.00027087278095 0  -1.000765809697614 14.0002240724626 0  2.974758984852557e-05 14.00020947885513 0  1.000827329794091 14.0002252303061 0  2.001632898150941 14.00027220049708 0  3.002451171170531 14.00035296124448 0  4.002458144066662 13.99977138275375 0  5.002461767180161 13.99919346050599 0  6.001834553476764 13.99942453528777 0  7.001218669158667 13.99962995142367 0  8.000608229205204 13.99981895233214 0  9 14 0  -9 16 0  -8.000844681611373 15.99983553920038 0  -7.001705370798671 15.999665026447 0  -6.002599450255138 15.9994823043271 0  -5.003547157011069 15.99928111026456 0  -4.003580443682738 15.99977670557193 0  -3.003548760558906 16.00026966729953 0  -2.002314683858279 16.00020665740201 0  -1.001129244399556 16.00016814504164 0  3.330490621521272e-05 16.00015329002736 0  1.001197322242154 16.00016153767045 0  2.002387187208214 16.00019288970173 0  3.003628840492068 16.00024778160357 0  4.003664757658033 15.99975656484321 0  5.003633842411263 15.99926494867756 0  6.002662462256099 15.99947133486191 0  7.00174632517987 15.99965811843184 0  8.000864830278678 15.99983218507506 0  9 16 0  -9 18 0  -8.001036823409077 17.99987614358644 0  -7.002099269802715 17.99974891186107 0  -6.003214291682761 17.99961499030575 0  -5.004411507653155 17.99947120744944 0  -4.004462070368342 17.99977867122085 0  -3.004413273024841 18.00008572341299 0  -2.002870158826936 18.00004466502257 0  -1.001401621730506 18.00001780876022 0  3.096612824556253e-05 18.00000490831257 0  1.001464371609263 18.00000564014919 0  2.002935311738909 18.00001962287152 0  3.004482239002745 18.00004634481644 0  4.004534030027071 17.99974530307073 0  5.004485023356585 17.9994451388525 0  6.003268313729772 17.99959662427408 0  7.002134731942466 17.9997372019195 0  8.001054384679216 17.99987044231102 0  9 18 0  -9 20 0  -8.001126155339996 19.99993024381326 0  -7.002282238657246 19.99985956463778 0  -6.003499323263284 19.9997871391545 0  -5.004810777149252 19.99971234404696 0  -4.004868594026192 19.99977870143525 0  -3.00481151936109 19.99984463968056 0  -2.003128530366371 19.99982602097131 0  -1.001530775142856 19.99981181083817 0  2.532922065260829e-05 19.99980215838204 0  1.00158179489754 19.99979689449822 0  2.003180609657256 19.99979554278429 0  3.004865289525126 19.99979729202472 0  4.004923420636735 19.99973947606166 0  5.004866271552568 19.99968228692257 0  6.003540539145372 19.99976556678608 0  7.00230951467473 19.99984564473449 0  8.001139731196576 19.99992342198561 0  8.999999999996675 19.99999999999844 0  -9 22 0  -8.001095481934426 21.99998802973937 0  -7.002220578427706 21.99997720094012 0  -6.003405834081811 21.99996876721705 0  -5.004683650783594 21.99996420872215 0  -4.004740272131135 21.99977633019681 0  -3.004684028253101 21.99958802380738 0  -2.003047185907759 21.99958979487125 0  -1.001493902319244 21.9995876391161 0  1.824280888895143e-05 21.99958191087033 0  1.001530388062757 21.99957255229662 0  2.003083652593021 21.99955910113077 0  3.004720399246552 21.99954068299844 0  4.00477624030272 21.99973739806337 0  5.004719390556379 21.99993451589229 0  6.003432860975265 21.99994731332562 0  7.002238690921218 21.99996328411925 0  8.00110456355814 21.99998118680456 0  9 22 0  -9 24 0  -8.000946049831265 24.0000412497801 0  -7.001917645323176 24.00008525626738 0  -6.002941042557957 24.0001348914443 0  -5.004043896056915 24.0001932626237 0  -4.004092655436428 23.99977191871941 0  -3.004044370655967 23.99935022232462 0  -2.002632788015332 23.99936922877121 0  -1.001293021548614 23.99937771255149 0  1.118275249077796e-05 23.99937613918505 0  1.001315106335149 23.99936453133886 0  2.002654013044164 23.99934247098462 0  3.004064104459495 23.99930909627881 0  4.004110816075444 23.99973828082202 0  5.004061189455093 24.000167745501 0  6.002954715550482 24.00011636001298 0  7.001927084373989 24.00007319083189 0  8.000950862975275 24.00003530383763 0  9 24 0  -9 26 0  -8.000694095383302 26.00008344890803 0  -7.001406830909496 26.00017079961071 0  -6.002157338163352 26.00026607063304 0  -5.002965678666606 26.00037351875548 0  -4.003001529368969 25.99976591575255 0  -3.002966600527794 25.99915805978658 0  -2.001932262775907 25.99919064581718 0  -1.00095040749949 25.99920790747408 0  5.293730670126522e-06 25.99921039667985 0  1.000960508379312 25.99919820840832 0  2.001940886294805 25.99917098081405 0  3.002972701204554 25.99912789511136 0  4.003005217466612 25.99974133611462 0  5.002968039261543 26.00035494645827 0  6.002160174175609 26.00025254265666 0  7.001409217363451 26.00016197205576 0  8.000695433521473 26.00007909240799 0  9 26 0  -9 28 0  -8.000367185389724 28.00011004774694 0  -7.000744208297432 28.00022466547676 0  -6.00114117273106 28.00034854101913 0  -5.001568641735165 28.00048660013191 0  -4.001588181357705 27.99975892254093 0  -3.001570207804386 27.99903112836179 0  -2.001022920353352 27.99907324824369 0  -1.000503681004172 27.99909707861431 0  1.40081992472479e-06 27.99910324827407 0  1.000505866781408 27.99909192181157 0  2.001023239199583 27.99906279941803 0  3.001567349999324 27.99901511622771 0  4.001582406648491 27.99974591925773 0  5.001561269519133 28.00047681818827 0  6.001136940446021 28.00034140173909 0  7.000741992831922 28.00021999970163 0  8.0003662562
[...]
<PointData  Scalars="f_44-1"> 
<DataArray  type="Float64"  Name="f_44-1"  format="ascii">1.0262537587200282e-03  9.3855509880165801e-05  6.0963971850623224e-05  1.4272301368079045e-04  -1.2479916764261325e-03  0.0000000000000000e+00  0.0000000000000000e+00  0.0000000000000000e+00  0.0000000000000000e+00  0.0000000000000000e+00  0.0000000000000000e+00  0.0000000000000000e+00  0.0000000000000000e+00  0.0000000000000000e+00  1.0439849609140154e-03  9.3815992588888654e-05  6.1593210076173869e-05  1.4206600027594622e-04  -1.2759190212733636e-03  4.9242061176211951e-02  4.9293011809095136e-02  4.9269353704661747e-02  4.9139472178787752e-02  4.9071079968364614e-02  0.0000000000000000e+00  0.0000000000000000e+00  0.0000000000000000e+00  0.0000000000000000e+00  0.0000000000000000e+00  0.0000000000000000e+00  0.0000000000000000e+00  0.0000000000000000e+00  0.0000000000000000e+00  4.9408793552529279e-02  4.9459484628569528e-02  4.9434360431240144e-02  4.9302235801616176e-02  4.9234233192533963e-02  9.8538701535430387e-02  9.8534778982449792e-02  9.8506105063564761e-02  9.8494894099181829e-02  9.8510374011979707e-02  0.0000000000000000e+00  0.0000000000000000e+00  0.0000000000000000e+00  0.0000000000000000e+00  0.0000000000000000e+00  0.0000000000000000e+00  0.0000000000000000e+00  0.0000000000000000e+00  0.0000000000000000e+00  9.8863550620362950e-02  9.8859125792371341e-02  9.8830642531616053e-02  9.8821782472246808e-02  9.8844390858005726e-02  1.4780593821745314e-01  1.4780117936360379e-01  1.4779606116376243e-01  1.4778893739970514e-01  1.4776852976004487e-01  0.0000000000000000e+00  0.0000000000000000e+00  0.0000000000000000e+00  0.0000000000000000e+00  0.0000000000000000e+00  0.0000000000000000e+00  0.0000000000000000e+00  0.0000000000000000e+00  0.0000000000000000e+00  1.4830373949042172e-01  1.4828009829935779e-01  1.4826798405689420e-01  1.4826290188700622e-01  1.4825841992402480e-01  1.9710084922966270e-01  1.9709577158391778e-01  1.9709045383198401e-01  1.9706869422940482e-01  1.9704766925414621e-01  0.0000000000000000e+00  0.0000000000000000e+00  0.0000000000000000e+00  0.0000000000000000e+00  0.0000000000000000e+00  0.0000000000000000e+00  0.0000000000000000e+00  0.0000000000000000e+00  0.0000000000000000e+00  1.9770840019621197e-01  1.9769290379984350e-01  1.9767497326621700e-01  1.9766715112841568e-01  1.9766647175102334e-01  2.4639462199556128e-01  2.4638850571173776e-01  2.4639488734937690e-01  2.4642686409053610e-01  2.4652449800130530e-01  0.0000000000000000e+00  7.5094311681104564e-01  7.5088411830050583e-01  7.5105789884087215e-01  7.5110217342128915e-01  7.5107032371743820e-01  7.5088990875186479e-01  7.5023824488275481e-01  0.0000000000000000e+00  2.4709055619303344e-01  2.4705844293025117e-01  2.4703977567340246e-01  2.4703959625316979e-01  2.4704377060793350e-01  2.9566227833513692e-01  2.9564809993311369e-01  2.9563515111972793e-01  2.9562513203528445e-01  2.9558053371586568e-01  0.0000000000000000e+00  7.5113423399275381e-01  7.5122416101822265e-01  7.5126824291106054e-01  7.5125865513023071e-01  7.5123745961293897e-01  7.5119839871085714e-01  7.5127011279678679e-01  0.0000000000000000e+00  2.9629858174528473e-01  2.9631664102987815e-01  2.9636275312422511e-01  2.9639235947271009e-01  2.9640698099386942e-01  3.4494152616018442e-01  3.4491633028192892e-01  3.4487299008699462e-01  3.4480932075454229e-01  3.4471654010894603e-01  0.0000000000000000e+00  7.5175078690430364e-01  7.5163535394667180e-01  7.5155080561927434e-01  7.5151560765496650e-01  7.5151166738709874e-01  7.5153461454197046e-01  7.5158912758478236e-01  0.0000000000000000e+00  3.4550004039867255e-01  3.4562998262518985e-01  3.4572972230470111e-01  3.4579048752132030e-01  3.4581669677639754e-01  3.9430162056244322e-01  3.9426655180926595e-01  3.9419497461694880e-01  3.9408368110629455e-01  3.9391885712732261e-01  0.0000000000000000e+00  7.5196283633390804e-01  7.5181379266677539e-01  7.5171607571179011e-01  7.5167141815182414e-01  7.5167738629336023e-01  7.5173366630845062e-01  7.5185091880239230e-01  0.0000000000000000e+00  3.9490441086980821e-01  3.9508962464114494e-01  3.9522876340642221e-01  3.9531466472351717e-01  3.9535018035625685e-01  4.4380940025146270e-01  4.4376800303666369e-01  4.4367742020388584e-01  4.4353435226608273e-01  4.4332787178872274e-01  0.0000000000000000e+00  7.5197790227656602e-01  7.5178673452171474e-01  7.5166645209426874e-01  7.5161626343970978e-01  7.5163498014023755e-01  7.5172252103622539e-01  7.5188843571868702e-01  0.0000000000000000e+00  4.4456706521430872e-01  4.4477600405249523e-01  4.4492909183915852e-01  4.4502523736041266e-01  4.4506532379379354e-01  4.9351088638468810e-01  4.9346773536274458e-01  4.9336992279072417e-01  4.9321466188569291e-01  4.9299355032182351e-01  0.0000000000000000e+00  7.5167410008290303e-01  7.5146528909647503e-01  7.5133836631504936e-01  7.5128870253957025e-01  7.5131603405101699e-01  7.5142080909052023e-01  7.5160906818008122e-01  0.0000000000000000e+00  4.9449000156215001e-01  4.9470012510853417e-01  4.9485144643222762e-01  4.9494704938189593e-01  4.9498741874321872e-01  5.4342507832465270e-01  5.4338488249757799e-01  5.4329167640544407e-01  5.4314323696922306e-01  5.4293365363899948e-01  0.0000000000000000e+00  7.5102353591361426e-01  7.5082046687416371e-01  7.5070028893022689e-01  7.5065540705980438e-01  7.5068619165809158e-01  7.5079337885155306e-01  7.5098002645973061e-01  0.0000000000000000e+00  5.4467526516228693e-01  5.4486153477370280e-01  5.4499345780580599e-01  5.4507753992118846e-01  5.4511362786439133e-01  5.9354398037769818e-01  5.9351100893347308e-01  5.9343310067658861e-01  5.9330861403124779e-01  5.9313422145228234e-01  0.0000000000000000e+00  7.5003450983117215e-01  7.4985932281422074e-01  7.4975821792854513e-01  7.4972175192025459e-01  7.4975070615786343e-01  7.4984598278370229e-01  7.5000762919259434e-01  0.0000000000000000e+00  5.9508823531844091e-01  5.9522920910046806e-01  5.9532682905718759e-01  5.9538993389991635e-01  5.9541769823143176e-01  6.4383545458543956e-01  6.4381309359398298e-01  6.4375908412313987e-01  6.4367233162987370e-01  6.4355209600519125e-01  0.0000000000000000e+00  7.4875400665666714e-01  7.4862553223261730e-01  7.4855382648387692e-01  7.4852865063146101e-01  7.4855108922602753e-01  7.4862213399274058e-01  7.4873900314524655e-01  0.0000000000000000e+00  6.4566957253456170e-01  6.4574893381465603e-01  6.4580116147481992e-01  6.4583619094900346e-01  6.4585251259212173e-01  6.9424793594384515e-01  6.9423835306803117e-01  6.9421398815669411e-01  6.9417420053561707e-01  6.9412069335629178e-01  0.0000000000000000e+00  7.4726278769300236e-01  7.4719438443650188e-01  7.4715909878809272e-01  7.4714695740786430e-01  7.4715925159466690e-01  7.4719699952892993e-01  7.4725492206129218e-01  0.0000000000000000e+00  6.9634102594059710e-01  6.9634909496926312e-01  6.9634965781888003e-01  6.9635254283611203e-01  6.9635555418907824e-01  7.4471672563235491e-01  7.4472065766875806e-01  7.4472831034808795e-01  7.4473935625245080e-01  7.4475763385825755e-01  0.0000000000000000e+00  7.4566508525592723e-01  7.4566329150224342e-01  7.4566740162471157e-01  7.4566868670398556e-01  7.4566854741256194e-01  7.4566798342682594e-01  7.4565970100269285e-01  0.0000000000000000e+00  7.4701313241319378e-01  7.4694791083890266e-01  7.4689607841821104e-01  7.4686622883694098e-01  7.4685551475467438e-01  7.9517139047160712e-01  7.9518807190682972e-01  7.9522652879815536e-01  7.9528657565652494e-01  7.9537370297834131e-01  0.0000000000000000e+00  7.4407651852256373e-01  7.4414042624295151e-01  7.4418252138768248e-01  7.4419616065991134e-01  7.4418276199755395e-01  7.4414326023671717e-01  7.4406899726838360e-01  0.0000000000000000e+00  7.9759447136609862e-01  7.9746199212164293e-01  7.9736277814967693e-01  7.9730320710677316e-01  7.9727986188333810e-01  8.4554369716816080e-01  8.4557093559986496e-01  8.4563552969457378e-01  8.4573725224571628e-01  8.4588258262470839e-01  0.0000000000000000e+00  7.4261109379072543e-01  7.4273248130682645e-01  7.4280687713742022e-01  7.4283038448473104e-01  7.4280433347611041e-01  7.4272954045716977e-01  7.4259680606053136e-01  0.0000000000000000e+00  8.4800139283081299e-01  8.4781531170819491e-01  8.4767913739815648e-01  8.4759624322535010e-01  8.4756277779494527e-01  8.9577530587990506e-01  8.9580973469340508e-01  8.9589284536106606e-01  8.9602420076235145e-01  8.9621045647047903e-01  0.0000000000000000e+00  7.4136875368597288e-01  7.4153293660365993e-01  7.4163020902576859e-01  7.4165985381957822e-01  7.4162301467253244e-01  7.4152031575507460e-01  7.4134299499639844e-01  0.0000000000000000e+00  8.9816748640134081e-01  8.9794787565522438e-01  8.9778966058532417e-01  8.9769264340029764e-01  8.9765273803571655e-01  9.4582454325656973e-01  9.4586198138669753e-01  9.4595385773051377e-01  9.4609947543748829e-01  9.4630463060040726e-01  0.0000000000000000e+00  7.4042462262606701e-01  7.4061187112698168e-01  7.4071971983419327e-01  7.4075082989915142e-01  7.4070607708479264e-01  7.4058577211975085e-01  7.4038264891793282e-01  0.0000000000000000e+00  9.4805177255908568e-01  9.4782317263768501e-01  9.4766087612164751e-01  9.4756081205492915e-01  9.4751892426054718e-01  9.9567106910595926e-01  9.9570707578715834e-01  9.9579705673116903e-01  9.9594004029623651e-01  9.9613980301383076e-01  0.0000000000000000e+00  7.3982067613442892e-01  7.4000812407911265e-01  7.4011257887011350e-01  7.4013997486574779e-01  7.4009081802174648e-01  7.3996485155666247e-01  7.3975751755723707e-01  0.0000000000000000e+00  9.9764473541637677e-01  9.9743353408526347e-01  9.9728619983923372e-01  9.9719480182239351e-01  9.9715563501083748e-01  1.0453185412349395e+00  1.0453488959421775e+00  1.0454265009908241e+00  1.0455501134414600e+00  1.0457204548173333e+00  0.0000000000000000e+00  7.3956000580890435e-01  7.3972448488022824e-01  7.3981124901808404e-01  7.3982990439112928e-01  7.3978038993389650e-01  7.3966156015367668e-01  7.3947256647412596e-01  0.0000000000000000e+00  1.0469713886918153e+00  1.0468025335930840e+00  1.0466879583003974e+00  1.0466161454121210e+00  1.0465840224398040e+00  1.0947927735204672e+00  1.0948147625825748e+00  1.0948725185365178e+00  1.0949661882798540e+00  1.0950903243145675e+00  0.0000000000000000e+00  7.3960921956432957e-01  7.3972508993927011e-01  7.3978057802566355e-01  7.3978647573555345e-01  7.3974250356635363e-01  7.3964625039153431e-01  7.3949929925850177e-01  0.0000000000000000e+00  1.0960897355587287e+00  1.0959834152013188e+00  1.0959162157525990e+00  1.0958725104276652e+00  1.0958506417804939e+00  1.1441396388844698e+00  1.1441509028271428e+00  1.1441799474459451e+00  1.1442298539895910e+00  1.1442920633903702e+00  0.0000000000000000e+00  7.3987717728111324e-01  7.3993064747186787e-01  7.3995309931899433e-01  7.3994909931908415e-01  7.3991420721594681e-01  7.3983049928998357e-01  7.3971670649296417e-01  0.0000000000000000e+00  1.1450806070711395e+00  1.1450579557182230e+00  1.1450445890296992e+00  1.1450325681403097e+00  1.1450221316124554e+00  1.1934247773047348e+00  1.1934262427328992e+00  1.1934279123110649e+00  1.1934280434532278e+00  1.1933831479480166e+00  0.0000000000000000e+00  7.4019887433039888e-01  7.4027005139436086e-01  7.4023104267105511e-01  7.4020995262425460e-01  7.4020049255350417e-01  7.4024456605922950e-01  7.4033403015174237e-01  0.0000000000000000e+00  1.1941115447769093e+00  1.1941250057714312e+00  1.1941598011250223e+00  1.1941747042877076e+00  1.1941738583468635e+00  1.2427183224979872e+00  1.2427133968063981e+00  1.2426939653062368e+00  1.2426461098782309e+00  1.2425786987748169e+00  0.0000000000000000e+00  7.4122933936379776e-01  7.4057991814732693e-01  7.4040120164300216e-01  7.4036952592007388e-01  7.4041330347947398e-01  7.4058504344518261e-01  7.4052717586678296e-01  0.0000000000000000e+00  1.2431441429814409e+00  1.2432806081504233e+00  1.2433408670780666e+00  1.2433661211301521e+00  1.2433693856436481e+00  1.2920642631216401e+00  1.2920591465391151e+00  1.2920415461304247e+00  1.2920110724057927e+00  1.2919834922643456e+00  0.0000000000000000e+00  0.0000000000000000e+00  0.0000000000000000e+00  0.0000000000000000e+00  0.0000000000000000e+00  0.0000000000000000e+00  0.0000000000000000e+00  0.0000000000000000e+00  0.0000000000000000e+00  1.2926309290082361e+00  1.2926266846085317e+00  1.2926233727395677e+00  1.2926297571635916e+00  1.2926305013870674e+00  1.3414636029894396e+00  1.3414533478183810e+00  1.3414449183054982e+00  1.3414294518570020e+00  1.3414016288087143e+00  0.0000000000000000e+00  0.0000000000000000e+00  0.0000000000000000e+00  0.0000000000000000e+00  0.0000000000000000e+00  0.0000000000000000e+00  0.0000000000000000e+00  0.0000000000000000e+00  0.0000000000000000e+00  1.3419471795330999e+00  1.3419250954537694e+00  1.3419216269750445e+00  1.3419206447265686e+00  1.3419173034462950e+00  1.3908619930595392e+00  1.3908882518503096e+00  1.3908846914137494e+00  1.3908517970935930e+00  1.3908447872531955e+00  0.0000000000000000e+00  0.0000000000000000e+00  0.0000000000000000e+00  0.0000000000000000e+00  0.0000000000000000e+00  0.0000000000000000e+00  0.0000000000000000e+00  0.0000000000000000e+00  0.0000000000000000e+00  1.3911998808171413e+00  1.3912188879574816e+00  1.3912140857282258e+00  1.3911830184117207e+00  1.3911789099499494e+00  1.4404523492481847e+00  1.4404212768812961e+00  1.4403014110126795e+00  1.4402956323893525e+00  1.4403720695352411e+00  0.0000000000000000e+00  0.0000000000000000e+00  0.0000000000000000e+00  0.0000000000000000e+00  0.0000000000000000e+00  0.0000000000000000e+00  0.0000000000000000e+00  0.0000000000000000e+00  0.0000000000000000e+00  1.4406224576130995e+00  1.4405877634411881e+00  1.4404699946131894e+00  1.4404649240416085e+00  1.4405400809203912e+00  1.4911623175483457e+00  1.4895695060894401e+00  1.4896268639658392e+00  1.4896150214948793e+00  1.4886091260687890e+00  0.0000000000000000e+00  0.0000000000000000e+00  0.0000000000000000e+00  0.0000000000000000e+00  0.0000000000000000e+00  0.0000000000000000e+00  0.0000000000000000e+00  0.0000000000000000e+00  0.0000000000000000e+00  1.4911229129440482e+00  1.4895705510111725e+00  1.4896279515039086e+00  1.4896147939486757e+00  1.4886324683054948e+00  </DataArray> 
</PointData> 
</Piece>
</UnstructuredGrid>
</VTKFile>