<?xml version="1.0"?>
<VTKFile type="UnstructuredGrid"  version="0.1"  >
<UnstructuredGrid>
<Piece  NumberOfPoints="589" NumberOfCells="1080">
<Points>
<DataArray  type="Float64"  NumberOfComponents="3"  format="ascii">-9 0 0  -8 0 0  -7 0 0  -6 0 0  -5 0 0  -4 0 0  -3 0 0  -2 0 0  -1 0 0  0 0 0  1 0 0  2 0 0  3 0 0  4 0 0  5 0 0  6 0 0  7 0 0  8 0 0  9 0 0  -9 2 0  -8.00000796974064 1.99998774581356 0  -7.000016728879124 1.99997702448115 0  -6.000028152315004 1.999969083407396 0  -5.000046540957815 1.999964478073633 0  -4.000027306555956 1.999973369980401 0  -3.000007534330201 1.999981930681156 0  -1.999997938183733 1.999990017911712 0  -0.9999964407190529 1.999996407761666 0  6.655092678745206e-09 1.999999191581217 0  0.9999961231210851 1.999997194077781 0  1.999996503952725 1.999990876121938 0  3.000004246948184 1.999983122450328 0  4.000020339754666 1.999974787159362 0  5.000043727375655 1.999971247838519 0  6.00002648848373 1.999972506236327 0  7.000015801132426 1.999978815686705 0  8.000007558491482 1.999988538581933 0  9 2 0  -9 4 0  -8.000012781701773 3.999969361073219 0  -7.000022800624284 3.999942928567013 0  -6.000028443710593 3.999924824203688 0  -5.000030053657436 3.999918980462689 0  -4.000001859667612 3.999923082066846 0  -2.999982970895345 3.999947362903184 0  -1.999978125156676 3.999979021507658 0  -0.9999854669687948 4.000004494243908 0  5.666101726014887e-07 4.000014708964856 0  0.9999863289417263 4.000006518589656 0  1.99997808086935 3.99998457191088 0  2.999982099542402 3.999954858611383 0  4.000000310411839 3.999924884633567 0  5.000028136773989 3.999914546433784 0  6.000026770594311 3.999924808872415 0  7.000021823168495 3.999943978571125 0  8.000012379994498 3.999970124082215 0  9 4 0  -9 6 0  -8.000028643707289 5.999934154935146 0  -7.000046375634562 5.999875524054636 0  -6.000044867638572 5.99983152635989 0  -5.000021724505793 5.999809283432396 0  -3.999966447782876 5.999845275947494 0  -2.999941328561639 5.999920692481613 0  -1.99995129088572 5.999999797362102 0  -0.9999761295046852 6.000043805599499 0  -1.318741326005217e-06 6.000052577511994 0  0.9999759815519729 6.000038141084717 0  1.999958659364686 5.999998304344348 0  2.999952184595248 5.999930991970188 0  3.999965393424476 5.99986109862682 0  5.000012937619163 5.999826217805104 0  6.000041377637539 5.999841486229298 0  7.000045826982348 5.999881242540693 0  8.000028946999658 5.999936792081074 0  9 6 0  -9 8 0  -8.00008814044844 7.999870111910225 0  -7.000146902733424 7.999749608203642 0  -6.000147827529545 7.999651230662619 0  -5.000066544470682 7.999595976198309 0  -3.999959506851773 7.999762671855901 0  -2.999979034796061 7.999958621193368 0  -2.00001905170826 8.000054235061036 0  -1.000022430686255 8.000065292172309 0  1.452591132935976e-06 8.000068548147008 0  1.000019208496691 8.000078233815522 0  2.00001160439805 8.000037867486766 0  2.99996460402966 7.999969204533925 0  3.999948598909184 7.999799241792414 0  5.000054471395724 7.999607411916189 0  6.000151931941224 7.999660241950022 0  7.000155130250532 7.99975535653105 0  8.000093766707328 7.999872843930922 0  9 8 0  -9 10 0  -8.000265049554413 9.999768612172858 0  -7.000478671719924 9.999535312877422 0  -6.000579515631935 9.999298649334934 0  -5.000482100305229 9.99905826645379 0  -4.000312508744389 9.999596418363859 0  -3.000339908319158 10.00005917478239 0  -2.000270892051045 9.999979900064723 0  -1.000121790167651 9.999954449262809 0  -1.174719711734626e-05 9.999948219681464 0  1.000097582508397 9.99994863941585 0  2.000243427471343 9.999945495025564 0  3.000371450647318 10.00011337793261 0  4.000354847571119 9.999669554577748 0  5.000549501498888 9.999083803630841 0  6.000639316324438 9.999310028705066 0  7.00052254253784 9.999540073890902 0  8.000288108384867 9.999770281125782 0  9 10 0  -9 12 0  -8.000647203639893 11.99967493081323 0  -7.00126079467594 11.99933476564917 0  -6.001802773201641 11.99896145289702 0  -5.002225943280419 11.9985298306818 0  -4.00213938089289 11.99951068633427 0  -3.002217433437282 12.00048163024094 0  -2.001514678677323 12.00036520801552 0  -1.000734237208552 12.00030281710752 0  7.526129786189681e-05 12.00029180997236 0  1.000892037315437 12.00033431695206 0  2.001697514558932 12.00044235275107 0  3.002454754491391 12.00064588399495 0  4.002369572271956 11.99957939967557 0  5.002426180495764 11.99850395030163 0  6.001951973742463 11.99894492602293 0  7.001360054724813 11.99932438313284 0  8.000696815447153 11.99966982055097 0  9 12 0  -9 14 0  -8.001162849937325 13.99964182829631 0  -7.002327832925193 13.99926714630655 0  -6.003498637955789 13.99885798754058 0  -5.004682900288262 13.99839352741363 0  -4.004695441653725 13.99953908440889 0  -3.004702158502838 14.0006990625381 0  -2.003071023593802 14.00053475094637 0  -1.00146369141346 14.00044596886821 0  0.0001334174071160312 14.00042163970053 0  1.00173314293806 14.00045824585956 0  2.003347288125223 14.00055775764334 0  3.004984985628476 14.00072555180265 0  4.004996755635812 13.99953730681212 0  5.005004683739299 13.99835627455077 0  6.003733103372586 13.99882667641469 0  7.002481454850972 13.99924523729524 0  8.001238957741974 13.99963064744447 0  9 14 0  -9 16 0  -8.001668657815522 15.99967489660564 0  -7.003369429941143 15.99933770902403 0  -6.005137205578325 15.9989761416971 0  -5.007012502670593 15.99857766523562 0  -4.00707978145729 15.99955307012953 0  -3.007016172311463 16.0005232303516 0  -2.004535559744229 16.00040323602531 0  -1.002153726176708 16.00033216477384 0  0.0001811974123539433 16.00030850327382 0  1.002518205614662 16.00033131798235 0  2.004906271963796 16.00040079907286 0  3.007397475954147 16.00051801160981 0  4.007468144404664 15.99950622749366 0  5.00740617130144 15.99849361896054 0  6.005430480078267 15.99891632555515 0  7.003563806797628 15.9992990685226 0  8.001765482969084 15.99965590191938 0  9 16 0  -9 18 0  -8.002044627023839 17.99975633571091 0  -7.004140546630945 17.99950592788266 0  -6.006341713921008 17.99924215429238 0  -5.008707369257901 17.99895865742326 0  -4.008808834261255 17.99955601364818 0  -3.008710844309066 18.00015252213667 0  -2.005609350409409 18.0000769042683 0  -1.002658151572955 18.00002963082484 0  0.0002205920116396045 18.00001036198396 0  1.00310094407342 18.00001860614768 0  2.006056863848736 18.0000537606238 0  3.00916583509722 18.00011496535436 0  4.009269370833675 17.99948312162207 0  5.009170682373693 17.99885303694863 0  6.006687176052429 17.99916617475208 0  7.004369862171538 17.99945675104872 0  8.002158985069135 17.99973217622572 0  9 18 0  -9 20 0  -8.002214150526102 19.99986472820045 0  -7.004488143712893 19.99972764466162 0  -6.006884105011509 19.99958713773343 0  -5.009468723121278 19.99944198593475 0  -4.00958445337114 19.99955582247519 0  -3.009469909820985 19.99966869371403 0  -2.006086906720516 19.99963784182921 0  -1.002875092148866 19.99961574780028 0  0.000253482038862486 19.99960283634547 0  1.003383583826373 19.99959889999833 0  2.006599956665919 19.99960312159025 0  3.009990487567772 19.99961401888117 0  4.010107585735656 19.99947176955257 0  5.009992041631874 19.99933068291707 0  6.007274352691807 19.99950636980589 0  7.004747241837054 19.99967508711732 0  8.002343380140104 19.99983883536665 0  8.999999999992216 19.9999999999934 0  -9 22 0  -8.002143120536017 21.99998034478329 0  -7.004345347306676 21.99996305212903 0  -6.006667644666773 21.99995070985689 0  -5.009174673217615 21.99994636120647 0  -4.009287959268084 21.99955104282371 0  -3.009175382567253 21.99915461981311 0  -2.005884737131054 21.99916396495899 0  -1.002761430307799 21.99916537234376 0  0.0002802741755676074 21.99915964901162 0  1.003323523434817 21.99914678380904 0  2.006451463764503 21.99912596289357 0  3.009749832496277 21.99909555460505 0  4.009862772157266 21.99946829513894 0  5.009747190397451 21.99984162461982 0  6.007094648982637 21.99987442839864 0  7.004628876422196 21.99991327323436 0  8.002284538503474 21.99995577798276 0  9 22 0  -9 24 0  -8.001834442435483 24.00008651436038 0  -7.003719681500487 24.00017866058392 0  -6.005707954640168 24.00028230313941 0  -5.007854271196658 24.00040378696083 0  -4.007951919870073 23.99954179188721 0  -3.007855878775555 23.9986787632894 0  -2.005018107799929 23.99872164439273 0  -1.002323612773091 23.99874333686779 0  0.0003010145286715285 23.9987448452418 0  1.002927220775002 23.99872629359059 0  2.005626462982533 23.99868692947594 0  3.008472182804827 23.99862511796012 0  4.008566806455629 23.99947051597094 0  5.008465024414248 24.00031616999724 0  6.006163493657127 24.00021828859462 0  7.004022166541239 24.00013679285556 0  8.001985314965172 24.00006582341937 0  9 24 0  -9 26 0  -8.001321176541948 26.0001701840176 0  -7.002679121562094 26.00034830484079 0  -6.004111628726815 26.00054253526282 0  -5.005658317861688 26.00076153912736 0  -4.005730251859581 25.99952858391836 0  -3.005661713401586 25.99829479279904 0  -2.003583100440501 25.99836363363381 0  -1.001608464507611 25.9984015948286 0  0.0003156441492763435 25.99840983387484 0  1.002241345909599 25.99838859441274 0  2.004220773587968 25.99833720735847 0  3.006307416159633 25.99825408823118 0  4.006373241250228 25.99947643387016 0  5.006295834911885 26.00069879999225 0  6.004587188743809 26.0004965989806 0  7.002994927991728 26.00031821258004 0  8.001478701549996 26.00015529712758 0  9 26 0  -9 28 0  -8.000659204072397 28.00022213735204 0  -7.001337341882781 28.00045353171259 0  -6.002053935573404 28.00070368019392 0  -5.002829374713256 28.00098256853678 0  -4.002868671031563 27.9995126154525 0  -3.002834803922972 27.99804217499051 0  -2.001736818356089 27.9981286720772 0  -1.000693305438755 27.99817826620743 0  0.0003241077701975973 27.99819225320999 0  1.001343098753374 27.99817099164111 0  2.002391354308807 27.99811390380339 0  3.003497275848446 27.99801947422706 0  4.003527625284364 27.9994846936984 0  5.003482053217857 28.00094984971059 0  6.002540890501632 28.00067967537741 0  7.001660759105601 28.00043778205012 0  8.00082054
[...]
<PointData  Scalars="f_44-1"> 
<DataArray  type="Float64"  Name="f_44-1"  format="ascii">1.4685864110419349e-03  4.4111506775426626e-06  4.5635439168577412e-05  6.3167927876918583e-05  -1.3481372145468368e-03  0.0000000000000000e+00  0.0000000000000000e+00  0.0000000000000000e+00  0.0000000000000000e+00  0.0000000000000000e+00  0.0000000000000000e+00  0.0000000000000000e+00  0.0000000000000000e+00  0.0000000000000000e+00  1.4752186661390338e-03  5.9642343319533065e-06  4.7550695861235635e-05  5.5973883163801735e-05  -1.3606237840510915e-03  9.1495100851462605e-02  9.1512665370292762e-02  9.1336023430694635e-02  9.1043174906088389e-02  9.0912745914463758e-02  0.0000000000000000e+00  0.0000000000000000e+00  0.0000000000000000e+00  0.0000000000000000e+00  0.0000000000000000e+00  0.0000000000000000e+00  0.0000000000000000e+00  0.0000000000000000e+00  0.0000000000000000e+00  9.1419060982629224e-02  9.1429190298344745e-02  9.1244732972951700e-02  9.0949759092840227e-02  9.0815561644279771e-02  1.8260697512112425e-01  1.8258759313249187e-01  1.8254219886896403e-01  1.8250291724316917e-01  1.8252084274196645e-01  0.0000000000000000e+00  0.0000000000000000e+00  0.0000000000000000e+00  0.0000000000000000e+00  0.0000000000000000e+00  0.0000000000000000e+00  0.0000000000000000e+00  0.0000000000000000e+00  0.0000000000000000e+00  1.8241004746584730e-01  1.8241454384145814e-01  1.8238847078527096e-01  1.8235255143683712e-01  1.8236455137246690e-01  2.7385725736159711e-01  2.7385784774813560e-01  2.7386505802284739e-01  2.7387612269366479e-01  2.7386841167984999e-01  0.0000000000000000e+00  0.0000000000000000e+00  0.0000000000000000e+00  0.0000000000000000e+00  0.0000000000000000e+00  0.0000000000000000e+00  0.0000000000000000e+00  0.0000000000000000e+00  0.0000000000000000e+00  2.7359546566724985e-01  2.7358982843762181e-01  2.7359716611684171e-01  2.7360528921705318e-01  2.7361311472980326e-01  3.6515758473765786e-01  3.6514156017402299e-01  3.6508425897939539e-01  3.6495948085722557e-01  3.6487906614536952e-01  0.0000000000000000e+00  0.0000000000000000e+00  0.0000000000000000e+00  0.0000000000000000e+00  0.0000000000000000e+00  0.0000000000000000e+00  0.0000000000000000e+00  0.0000000000000000e+00  0.0000000000000000e+00  3.6471981827295191e-01  3.6479846086882428e-01  3.6483200051497966e-01  3.6485406260383263e-01  3.6486733121101045e-01  4.5656371380950062e-01  4.5654699444899310e-01  4.5650624558998887e-01  4.5648412244897441e-01  4.5647250822275176e-01  0.0000000000000000e+00  1.4264306022121149e+00  1.4262962275024296e+00  1.4263358143591462e+00  1.4262953727300562e+00  1.4263504606828534e+00  1.4263763965040372e+00  1.4257096855559737e+00  0.0000000000000000e+00  4.5604052885568824e-01  4.5607900983773147e-01  4.5610794204471744e-01  4.5614483679910039e-01  4.5616394929584114e-01  5.4807670587089752e-01  5.4804949391364133e-01  5.4796962335379140e-01  5.4785137460210065e-01  5.4762285635770813e-01  0.0000000000000000e+00  1.4264124632478707e+00  1.4262860837487645e+00  1.4262073915638880e+00  1.4261673051070296e+00  1.4262104481655695e+00  1.4262856082663111e+00  1.4265962935645586e+00  0.0000000000000000e+00  5.4712506549591100e-01  5.4729483981531879e-01  5.4744278434285376e-01  5.4752433846159076e-01  5.4755527527071479e-01  6.3981053446642266e-01  6.3977050379130695e-01  6.3963295597510883e-01  6.3940366404295534e-01  6.3904400696288810e-01  0.0000000000000000e+00  1.4263847430487135e+00  1.4260473420649071e+00  1.4258251968399709e+00  1.4257569628450018e+00  1.4258208100069374e+00  1.4260147878186569e+00  1.4263268313720898e+00  0.0000000000000000e+00  6.3834083494183524e-01  6.3871949965322472e-01  6.3897403500608130e-01  6.3912792578474176e-01  6.3917525771984651e-01  7.3193932420226959e-01  7.3188746822355955e-01  7.3169012217108220e-01  7.3134712603961849e-01  7.3082482407560390e-01  0.0000000000000000e+00  1.4256766428181558e+00  1.4252004308626280e+00  1.4249170496232593e+00  1.4248244479522787e+00  1.4249168730361175e+00  1.4251959844601068e+00  1.4256875452439910e+00  0.0000000000000000e+00  7.2999187855080294e-01  7.3055350034928312e-01  7.3093874448360929e-01  7.3115867476876051e-01  7.3121903595728599e-01  8.2464204755834103e-01  8.2458266750810028e-01  8.2434109954882318e-01  8.2391471296533436e-01  8.2328058925485348e-01  0.0000000000000000e+00  1.4242068593452943e+00  1.4236124236673555e+00  1.4232597431054750e+00  1.4231441306438819e+00  1.4232614778379407e+00  1.4236136999219717e+00  1.4242193001735981e+00  0.0000000000000000e+00  8.2242400217035616e-01  8.2309229299981035e-01  8.2355122666311331e-01  8.2381258637358545e-01  8.2388009900052628e-01  9.1805216174074800e-01  9.1799150106468852e-01  9.1773161358683886e-01  9.1726993925079114e-01  9.1659526218633003e-01  0.0000000000000000e+00  1.4217012964025066e+00  1.4210525653087085e+00  1.4206731447637491e+00  1.4205506990087509e+00  1.4206810613595986e+00  1.4210679204297152e+00  1.4217262211474209e+00  0.0000000000000000e+00  9.1576049843869978e-01  9.1646648481014303e-01  9.1695065080999960e-01  9.1722439802874700e-01  9.1729184614723325e-01  1.0122270715677921e+00  1.0121717662215202e+00  1.0119227613310207e+00  1.0114787289596279e+00  1.0108394919461516e+00  0.0000000000000000e+00  1.4180775593945161e+00  1.4174452967341975e+00  1.4170792804649448e+00  1.4169622616442754e+00  1.4170916382620051e+00  1.4174720962529948e+00  1.4181134346843882e+00  0.0000000000000000e+00  1.0100640533498566e+00  1.0107295595976167e+00  1.0111856166353117e+00  1.0114421177639843e+00  1.0115028481065860e+00  1.1071372402639141e+00  1.1070932802302997e+00  1.1068830095645963e+00  1.1065068189524356e+00  1.1059745020900562e+00  0.0000000000000000e+00  1.4133621481312519e+00  1.4128157710379088e+00  1.4125032175931054e+00  1.4124048366379369e+00  1.4125195437143185e+00  1.4128523302266485e+00  1.4134068408287832e+00  0.0000000000000000e+00  1.1052832454430082e+00  1.1058356723689449e+00  1.1062135712490435e+00  1.1064250411226906e+00  1.1064730144240289e+00  1.2026695359227380e+00  1.2026415266579664e+00  1.2024930901117055e+00  1.2022264214509266e+00  1.2018598203870805e+00  0.0000000000000000e+00  1.4077029433441961e+00  1.4073023213759097e+00  1.4070775761856398e+00  1.4070089406119779e+00  1.4070968767094008e+00  1.4073461964222822e+00  1.4077541821079942e+00  0.0000000000000000e+00  1.2012645349445714e+00  1.2016448960170023e+00  1.2019042306945522e+00  1.2020482813335827e+00  1.2020789584172435e+00  1.2986410988034496e+00  1.2986317675585941e+00  1.2985610485114658e+00  1.2984327469657193e+00  1.2982717408569642e+00  0.0000000000000000e+00  1.4013506752739333e+00  1.4011393960348026e+00  1.4010271136175410e+00  1.4009960792923466e+00  1.4010482107561608e+00  1.4011877090524416e+00  1.4014057570385841e+00  0.0000000000000000e+00  1.2977729982973478e+00  1.2979417466440493e+00  1.2980555720427569e+00  1.2981175190404239e+00  1.2981283661990726e+00  1.3948207806525859e+00  1.3948307279374019e+00  1.3948448756472815e+00  1.3948682686656027e+00  1.3949300455086560e+00  0.0000000000000000e+00  1.3946309257926350e+00  1.3946319059715153e+00  1.3946445281401951e+00  1.3946548890572632e+00  1.3946661477452424e+00  1.3946815391100784e+00  1.3946869661850563e+00  0.0000000000000000e+00  1.3945189855457805e+00  1.3944597262564420e+00  1.3944170867565620e+00  1.3943912956125455e+00  1.3943820130002476e+00  1.4909552018005088e+00  1.4909828765856064e+00  1.4910797169755003e+00  1.4912515611426598e+00  1.4915291699194599e+00  0.0000000000000000e+00  1.3879092328761784e+00  1.3881225150993277e+00  1.3882590250507643e+00  1.3883101087737377e+00  1.3882798632085449e+00  1.3881702826618083e+00  1.3879633269137941e+00  0.0000000000000000e+00  1.4911899155819037e+00  1.4909106937067276e+00  1.4907174505710916e+00  1.4906077378918110e+00  1.4905802360502345e+00  1.5867964703247253e+00  1.5868383953060443e+00  1.5870068148511616e+00  1.5873078958016498e+00  1.5877711245378410e+00  0.0000000000000000e+00  1.3815521495669691e+00  1.3819549324999312e+00  1.3822009454042714e+00  1.3822876658234686e+00  1.3822197526625593e+00  1.3819977718823235e+00  1.3816015331684288e+00  0.0000000000000000e+00  1.5874834198897478e+00  1.5870156747988795e+00  1.5866936830181655e+00  1.5865128045248824e+00  1.5864709514326931e+00  1.6821290630774650e+00  1.6821802472694980e+00  1.6824013747588131e+00  1.6827984795800084e+00  1.6833969214625912e+00  0.0000000000000000e+00  1.3758878561105206e+00  1.3764367633845322e+00  1.3767659349524619e+00  1.3768792798126763e+00  1.3767815788088194e+00  1.3764718844312269e+00  1.3759300434554449e+00  0.0000000000000000e+00  1.6831389673232644e+00  1.6825342774090024e+00  1.6821190686659866e+00  1.6818872698273017e+00  1.6818364243277200e+00  1.7767918801296112e+00  1.7768463337406968e+00  1.7770955841718648e+00  1.7775455285520940e+00  1.7782141268097138e+00  0.0000000000000000e+00  1.3711700176109958e+00  1.3718055694557303e+00  1.3721822553786327e+00  1.3723101903192900e+00  1.3721938048533771e+00  1.3718306628654038e+00  1.3712030209238657e+00  0.0000000000000000e+00  1.7779656166920763e+00  1.7772900678571861e+00  1.7768268754710581e+00  1.7765696989887079e+00  1.7765160756150691e+00  1.8706978956573801e+00  1.8707495204849822e+00  1.8709998519457085e+00  1.8714541516841088e+00  1.8721204774688773e+00  0.0000000000000000e+00  1.3675489838349177e+00  1.3682016819608043e+00  1.3685848914793719e+00  1.3687138501928715e+00  1.3685919618960471e+00  1.3682152125269798e+00  1.3675709599697152e+00  0.0000000000000000e+00  1.8718624503789112e+00  1.8711888840091917e+00  1.8707280025014996e+00  1.8704731793906488e+00  1.8704230620391897e+00  1.9638347285494944e+00  1.9638778483749972e+00  1.9641033027469594e+00  1.9645151656545758e+00  1.9651077760058588e+00  0.0000000000000000e+00  1.3650515719590086e+00  1.3656522287926613e+00  1.3660012968884010e+00  1.3661173717857935e+00  1.3660021292894375e+00  1.3656516331763675e+00  1.3650612172545225e+00  0.0000000000000000e+00  1.9648277893840760e+00  1.9642311594658721e+00  1.9638195892447181e+00  1.9635933388004239e+00  1.9635520352046905e+00  2.0562779269530194e+00  2.0563114237804108e+00  2.0564891410472170e+00  2.0568120671613519e+00  2.0572652263922726e+00  0.0000000000000000e+00  1.3635821833563513e+00  1.3640699686754902e+00  1.3643466786508656e+00  1.3644381048854242e+00  1.3643457872058602e+00  1.3640638911728040e+00  1.3635906279214440e+00  0.0000000000000000e+00  2.0569852996563500e+00  2.0565052485052275e+00  2.0561826250626476e+00  2.0560054594542954e+00  2.0559766974665887e+00  2.1481470975361372e+00  2.1481644779127733e+00  2.1482864219663398e+00  2.1485407036727908e+00  2.1488776203637490e+00  0.0000000000000000e+00  1.3629439117224029e+00  1.3632532090786094e+00  1.3634457984990938e+00  1.3635088818487411e+00  1.3634403183174804e+00  1.3632181734499396e+00  1.3628826219629682e+00  0.0000000000000000e+00  2.1484487664068701e+00  2.1481773837837035e+00  2.1479669709415359e+00  2.1478515034590044e+00  2.1478356225260247e+00  2.2396143261592796e+00  2.2396254826477535e+00  2.2397034489833314e+00  2.2398340896736761e+00  2.2399303550051934e+00  0.0000000000000000e+00  1.3626749529249242e+00  1.3629853931907456e+00  1.3630601155483490e+00  1.3631028663112401e+00  1.3630625722483742e+00  1.3629838258955773e+00  1.3628566811853489e+00  0.0000000000000000e+00  2.2396923095004500e+00  2.2394742741839777e+00  2.2393688999227015e+00  2.2393109611589646e+00  2.2393075487252987e+00  2.3308606414012756e+00  2.3308555330050016e+00  2.3308690965188670e+00  2.3308570235899921e+00  2.3308775513211115e+00  0.0000000000000000e+00  1.3635641409289327e+00  1.3628972358529157e+00  1.3629236413099162e+00  1.3629783244400762e+00  1.3629380896207699e+00  1.3629772252286536e+00  1.3628440326647462e+00  0.0000000000000000e+00  2.3304414419868209e+00  2.3305484740767000e+00  2.3305709232503431e+00  2.3305764460349940e+00  2.3305793723308557e+00  2.4220020935188682e+00  2.4220206112514262e+00  2.4220095974609239e+00  2.4220019708767109e+00  2.4220299213447993e+00  0.0000000000000000e+00  0.0000000000000000e+00  0.0000000000000000e+00  0.0000000000000000e+00  0.0000000000000000e+00  0.0000000000000000e+00  0.0000000000000000e+00  0.0000000000000000e+00  0.0000000000000000e+00  2.4217297555041335e+00  2.4217662556898838e+00  2.4217827122224231e+00  2.4218009712150046e+00  2.4218241331037702e+00  2.5133041161607204e+00  2.5132629730112428e+00  2.5132657625782584e+00  2.5132812182367426e+00  2.5132404739610030e+00  0.0000000000000000e+00  0.0000000000000000e+00  0.0000000000000000e+00  0.0000000000000000e+00  0.0000000000000000e+00  0.0000000000000000e+00  0.0000000000000000e+00  0.0000000000000000e+00  0.0000000000000000e+00  2.5131704050969415e+00  2.5131195109546600e+00  2.5131336728864175e+00  2.5131648888921685e+00  2.5131458270740783e+00  2.6042089186665671e+00  2.6041947800466732e+00  2.6042333000974023e+00  2.6041574547481865e+00  2.6041033048241307e+00  0.0000000000000000e+00  0.0000000000000000e+00  0.0000000000000000e+00  0.0000000000000000e+00  0.0000000000000000e+00  0.0000000000000000e+00  0.0000000000000000e+00  0.0000000000000000e+00  0.0000000000000000e+00  2.6041348681141439e+00  2.6041252875235683e+00  2.6041632028622272e+00  2.6040923572954764e+00  2.6040475853152620e+00  2.6951701164356594e+00  2.6957684564661846e+00  2.6959795361331351e+00  2.6962967697661351e+00  2.6968762596535747e+00  0.0000000000000000e+00  0.0000000000000000e+00  0.0000000000000000e+00  0.0000000000000000e+00  0.0000000000000000e+00  0.0000000000000000e+00  0.0000000000000000e+00  0.0000000000000000e+00  0.0000000000000000e+00  2.6951953425282258e+00  2.6957555893786642e+00  2.6959477070321807e+00  2.6962464008258906e+00  2.6968011119160269e+00  2.7906341527938601e+00  2.7867127482912659e+00  2.7861980560147028e+00  2.7867125230035454e+00  2.7845349141925757e+00  0.0000000000000000e+00  0.0000000000000000e+00  0.0000000000000000e+00  0.0000000000000000e+00  0.0000000000000000e+00  0.0000000000000000e+00  0.0000000000000000e+00  0.0000000000000000e+00  0.0000000000000000e+00  2.7906000753908180e+00  2.7867195227299386e+00  2.7862025301319511e+00  2.7867120415806608e+00  2.7845584781885728e+00  </DataArray> 
</PointData> 
</Piece>
</UnstructuredGrid>
</VTKFile>