<?xml version="1.0"?>
<VTKFile type="UnstructuredGrid"  version="0.1"  >
<UnstructuredGrid>
<Piece  NumberOfPoints="589" NumberOfCells="1080">
<Points>
<DataArray  type="Float64"  NumberOfComponents="3"  format="ascii">-9 0 0  -8 0 0  -7 0 0  -6 0 0  -5 0 0  -4 0 0  -3 0 0  -2 0 0  -1 0 0  0 0 0  1 0 0  2 0 0  3 0 0  4 0 0  5 0 0  6 0 0  7 0 0  8 0 0  9 0 0  -9 2 0  -7.999995950096694 2.000005454572772 0  -6.999991569417022 2.000010260107882 0  -5.999986057067899 2.000013891383752 0  -4.999977560775136 2.000016122427408 0  -3.999986208742403 2.000011959113821 0  -2.999995082466564 2.000008133308007 0  -1.999999487348493 2.000004590139703 0  -1.000000378958294 2.000001767527205 0  9.563410598110049e-07 2.000000451791496 0  1.000002557649532 2.000001095705584 0  2.000002561238579 2.000003456742272 0  2.999999766074712 2.000006280626357 0  3.999993929849256 2.000009033186555 0  4.999985713793854 2.000009285044901 0  5.999991759708534 2.000009368461004 0  6.99999523075 2.000007411231072 0  7.999997747198015 2.000004061426282 0  9 2 0  -9.000000000009988 4 0  -7.999993223246022 4.000013505460413 0  -6.999987665504049 4.00002521737856 0  -5.999984049888271 4.000033383764308 0  -4.999982261333074 4.000036345235382 0  -3.999994555579492 4.000034212349676 0  -3.000002816095086 4.000023587967431 0  -2.000005075398684 4.000009853513157 0  -1.000002133508519 3.999998763753525 0  3.651476331133658e-06 3.999994084938225 0  1.000009635041413 3.99999695866668 0  2.00001328412836 4.000005327208215 0  3.000012095987745 4.000016583368194 0  4.000005338318614 4.00002745614796 0  4.999994786217925 4.000029602495564 0  5.999993818908109 4.00002689956863 0  6.99999427986533 4.000020392877274 0  7.999996548947427 4.000010969462692 0  9 4 0  -9 6 0  -7.999985620077513 6.000028731285426 0  -6.999975993055048 6.000054357482669 0  -5.999974734487974 6.000073696465162 0  -4.999982849662114 6.000083734809832 0  -4.000006467146143 6.000067799489153 0  -3.000017128917059 6.000035150506441 0  -2.00001266815041 6.000001074805537 0  -1.000001999031391 5.999982283615894 0  8.569262188711348e-06 5.999978331076529 0  1.00001788270205 5.999983800357889 0  2.000024929606896 5.9999992641522 0  3.000027726941758 6.000025419419734 0  4.000022756439614 6.000052147543544 0  5.0000039466907 6.000064322629838 0  5.999990164993284 6.000059646298885 0  6.99998609631307 6.000045042032893 0  7.999990622587283 6.000024062261832 0  9 6 0  -9 8 0  -7.999959003613879 8.000056380962571 0  -6.999930845462523 8.000108650165844 0  -5.999927923472963 8.00015121530646 0  -4.999960716983083 8.000174860956131 0  -4.000006603852013 8.000102366123807 0  -2.999996974088869 8.000017488680708 0  -1.999978787901252 7.999976868356947 0  -0.999976924587781 7.999973189416261 0  1.282411481252893e-05 7.999972273430896 0  1.000004829420562 7.999968216214269 0  2.000007335189554 7.999983600425006 0  3.000026105779325 8.000009899172651 0  4.000032399786231 8.000076713385344 0  4.999989770862074 8.000152271155713 0  5.999947656477072 8.000132109393736 0  6.999943530222189 8.000095196645141 0  7.99996528943904 8.000049487553989 0  9 8 0  -9 10 0  -7.999881016238573 10.00010049205092 0  -6.999784733753588 10.00020178133648 0  -5.99973823308847 10.00030444873902 0  -4.999779121602156 10.00040859022527 0  -3.999852638026609 10.00017270575426 0  -2.999838633975922 9.999970339165722 0  -1.999867275960194 10.00000813333983 0  -0.9999315754058239 10.00002033232221 0  2.192428777957352e-05 10.0000233005575 0  0.9999763580664301 10.00002278475344 0  1.999916431558922 10.00002286811208 0  2.999862718793883 9.999953227191209 0  3.999868438992655 10.00012936599834 0  4.999790970408795 10.0003621399724 0  5.999753161423983 10.00027160203996 0  6.999797401237101 10.00018055072171 0  7.999888137490045 10.00009003549871 0  9 10 0  -9 12 0  -7.99971213956059 12.00014144529412 0  -6.999439357495168 12.00028945266736 0  -5.999198719937102 12.0004518780109 0  -4.999011262577647 12.00063971244166 0  -3.999049426107432 12.00020669745741 0  -2.999013505476243 11.99977751798627 0  -1.999300417067164 11.99983309606416 0  -0.9996236488366541 11.99986523718374 0  3.835526604441131e-05 11.99987523469482 0  0.9996948892487375 11.99986249764729 0  1.999353227546865 11.99982235735304 0  2.999027425990266 11.99974282210109 0  3.99905969414636 12.0001640947876 0  4.99903895079927 12.00058843856307 0  5.999230308445129 12.00041320556245 0  6.999465205907439 12.00026379555405 0  7.999726431809202 12.00012868618239 0  9 12 0  -9 14 0  -7.999482773922949 14.00015618573462 0  -6.998965122309873 14.00031951363469 0  -5.998446005587138 14.0004977606517 0  -4.997922576913296 14.00069994341738 0  -3.997917948546324 14.00018951633137 0  -2.997913160416624 13.99967238845284 0  -1.998588607895097 13.99975187121987 0  -0.9992568270555082 13.99979877386616 0  7.667278205858801e-05 13.99981815675625 0  0.9994064072092597 13.99981188127954 0  1.998727000846743 13.99977950817766 0  2.998033853331084 13.99971917719655 0  3.998026214273967 14.00017846444975 0  4.998025369523448 14.00063444422624 0  5.998532941785144 14.00045163205953 0  6.999027491216814 14.00028990580748 0  7.999515230163194 14.00014168083897 0  9 14 0  -9 16 0  -7.999254868895986 16.00014238140974 0  -6.998496350365771 16.0002899483366 0  -5.997709900959619 16.00044797523012 0  -4.99687846887966 16.00062180666323 0  -3.996850143532488 16.00017921714057 0  -2.996875812102926 15.99973875692057 0  -1.997906319840635 15.99980115079994 0  -0.9988971660513296 15.99984253642201 0  0.0001300259080478449 15.99986384278943 0  0.9991547157229329 15.99986578124683 0  1.99815625616249 15.99984861433606 0  2.997112613370063 15.99981225758641 0  3.997081498970947 16.00018865892187 0  4.997108793976422 16.00056519871579 0  5.997887072028521 16.0004057893242 0  6.998616662236095 16.00026206297651 0  7.999315695367907 16.00012852585494 0  9 16 0  -9 18 0  -7.999080253018041 18.00010784132994 0  -6.99813884759723 18.00021856772764 0  -5.997152994498135 18.00033501040386 0  -4.996097589908262 18.00045985773916 0  -3.996054284393342 18.00017497178748 0  -2.996094556287601 17.99989027158501 0  -1.997383440279069 17.99993461205823 0  -0.998610032099927 17.99996676815999 0  0.0001933402654114682 17.99998714967672 0  0.9989958936927303 17.99999624708748 0  1.997766880621173 17.99999461653073 0  2.996474113067365 17.99998294121351 0  3.996430706174317 18.00019659366901 0  4.996472383478383 18.00040933435188 0  5.99743528347827 18.00029726013304 0  6.998327645857743 18.00019349095361 0  7.999174841460356 18.00009533507221 0  9 18 0  -9 20 0  -7.998992032219573 20.00006175666269 0  -6.997958667530012 20.00012432680404 0  -5.996873529391594 20.00018843775533 0  -4.995708268972455 20.00025463456699 0  -3.995658623537052 20.00017315331854 0  -2.995706063773401 20.00009178905547 0  -1.997110573924176 20.00011691806523 0  -0.9984431710582647 20.00013820742132 0  0.0002598868149785732 20.00015570150034 0  0.9989636587135291 20.00016972848547 0  1.997633253192008 20.00018089213407 0  2.996232561293068 20.00019009574788 0  3.996184763446012 20.00020068106181 0  4.996232339172392 20.00021049730305 0  5.997264962449262 20.00015552252069 0  6.998218882194672 20.00010247151083 0  7.999121923474505 20.00005085575403 0  8.999999999970552 20.00000000000431 0  -9 22 0  -7.999005180776761 22.00001241248944 0  -6.997985120210191 22.0000239193002 0  -5.996913786278832 22.00003351860869 0  -4.995763562209878 22.00004001410384 0  -3.995714899250114 22.00017377947794 0  -2.99576197225995 22.00030757858566 0  -1.997126199450021 22.00031461743659 0  -0.9984193346692568 22.00032486491599 0  0.0003235592543819585 22.00033815788181 0  0.9990684988363284 22.00035469527527 0  1.997781564439919 22.00037503191763 0  2.996427886356607 22.00040008576817 0  3.996382628961902 22.0002019894086 0  4.996428956408932 22.00000323111941 0  5.997408798046108 22.00000608865647 0  6.998313242315032 22.00000570881949 0  7.999168682815031 22.00000333038738 0  9 22 0  -9 24 0  -7.99911907644105 23.99996668942558 0  -6.998216203899847 23.99993113835609 0  -5.997268836808062 23.99989100793054 0  -4.996253247669372 23.9998437666559 0  -3.996211310310091 24.00017608789031 0  -2.996252214167884 24.00050831594551 0  -1.997426992974515 24.00049944959027 0  -0.9985399868154582 24.00049930859018 0  0.0003790618044347807 24.00050760327996 0  0.9993012327073899 24.00052442821303 0  1.998197677587896 24.00055025969767 0  2.997038869963661 24.00058595901325 0  3.997001522068112 24.00020079790476 0  4.99704083815776 23.99981502706081 0  5.997853582600706 23.99986960533679 0  6.998603237953467 23.99991694120533 0  7.999311762991167 23.99995961217883 0  9 24 0  -9 26 0  -7.999320541216179 25.99992993082822 0  -6.998624772950733 25.99985667149829 0  -5.997896002064165 25.99977693450815 0  -4.997116735055632 25.99968724113558 0  -3.997085787650029 26.00017939774386 0  -2.997116118652368 26.00067136939506 0  -1.997975686789315 26.00064931202481 0  -0.9987891517427334 26.0006399368269 0  0.0004221092533995988 26.00064285281654 0  0.9996372836816678 26.00065805657746 0  1.998835636319366 26.00068593255709 0  2.997996019970306 26.00072725382996 0  3.997970511717358 26.00019753191265 0  4.997998625149556 25.99966729376832 0  5.99855007030969 25.9997621000028 0  6.999057356906357 25.9998468407365 0  7.999535801911844 25.9999250328766 0  9 26 0  -9 28 0  -7.999586969471536 27.99990593614118 0  -6.999164848447583 27.9998081143502 0  -5.998724363984426 27.99970268066866 0  -4.998255827874895 27.99958559097476 0  -3.998238640650161 28.00018317010521 0  -2.998255385409404 28.00078049738409 0  -1.998709531860004 28.0007483723762 0  -0.9991375511776966 28.0007313255314 0  0.0004495401266800199 28.00072887204504 0  1.000041031690032 28.00074091386706 0  1.999626292542478 28.00076773781631 0  2.9991945412612 28.00081001589555 0  3.999183401146426 28.00019274328734 0  4.999197620318888 27.9995750665727 0  5.999422499788738 27.99969487122148 0  6.999626403081979 27.9998029470
[...]
<PointData  Scalars="f_44-1"> 
<DataArray  type="Float64"  Name="f_44-1"  format="ascii">-1.3165255230681661e-03  -1.3829872996890623e-04  -5.0261912682991878e-05  -1.4334556912464264e-04  1.7185684206465933e-03  0.0000000000000000e+00  0.0000000000000000e+00  0.0000000000000000e+00  0.0000000000000000e+00  0.0000000000000000e+00  0.0000000000000000e+00  0.0000000000000000e+00  0.0000000000000000e+00  0.0000000000000000e+00  -1.3476969057188094e-03  -1.0876753432697359e-04  -2.2669687712336787e-05  -1.3263132344637276e-04  1.7635543015836520e-03  -4.7572584683594786e-02  -4.7601138036519830e-02  -4.7514132649940928e-02  -4.7350403028564705e-02  -4.7182474531457970e-02  0.0000000000000000e+00  0.0000000000000000e+00  0.0000000000000000e+00  0.0000000000000000e+00  0.0000000000000000e+00  0.0000000000000000e+00  0.0000000000000000e+00  0.0000000000000000e+00  0.0000000000000000e+00  -4.8228305885442913e-02  -4.8276739855319738e-02  -4.8198827722841300e-02  -4.8012178831744245e-02  -4.7824994638816537e-02  -9.5096966452028031e-02  -9.5105573530529106e-02  -9.5094852669443591e-02  -9.5069188798733092e-02  -9.5060240199969046e-02  0.0000000000000000e+00  0.0000000000000000e+00  0.0000000000000000e+00  0.0000000000000000e+00  0.0000000000000000e+00  0.0000000000000000e+00  0.0000000000000000e+00  0.0000000000000000e+00  0.0000000000000000e+00  -9.6387440168720764e-02  -9.6366078627480672e-02  -9.6329196880047804e-02  -9.6311479950555084e-02  -9.6324133166141884e-02  -1.4262504166330273e-01  -1.4260909851926792e-01  -1.4257459739210157e-01  -1.4253555151390937e-01  -1.4249277191973625e-01  0.0000000000000000e+00  0.0000000000000000e+00  0.0000000000000000e+00  0.0000000000000000e+00  0.0000000000000000e+00  0.0000000000000000e+00  0.0000000000000000e+00  0.0000000000000000e+00  0.0000000000000000e+00  -1.4453962008572840e-01  -1.4451351978793045e-01  -1.4450589264166910e-01  -1.4450264697345064e-01  -1.4450438704026325e-01  -1.9022810329552337e-01  -1.9022255934530657e-01  -1.9021428042900049e-01  -1.9018473958429866e-01  -1.9016573422160640e-01  0.0000000000000000e+00  0.0000000000000000e+00  0.0000000000000000e+00  0.0000000000000000e+00  0.0000000000000000e+00  0.0000000000000000e+00  0.0000000000000000e+00  0.0000000000000000e+00  0.0000000000000000e+00  -1.9272507953022164e-01  -1.9269259482246606e-01  -1.9266612661425955e-01  -1.9265680106926139e-01  -1.9264905339428753e-01  -2.3786290884157879e-01  -2.3786145324108510e-01  -2.3786782077607471e-01  -2.3788736223694071e-01  -2.3801591762014970e-01  0.0000000000000000e+00  -6.9743456656592417e-01  -6.9741289155574382e-01  -6.9773514998708197e-01  -6.9784172905792718e-01  -6.9773766262732106e-01  -6.9736260024015384e-01  -6.9645112587840186e-01  0.0000000000000000e+00  -2.4083223311470223e-01  -2.4077248395587747e-01  -2.4076866689581852e-01  -2.4077827776660890e-01  -2.4077342551759229e-01  -2.8549237123573601e-01  -2.8548183551924095e-01  -2.8545709126962804e-01  -2.8541158249803067e-01  -2.8538975050139992e-01  0.0000000000000000e+00  -6.9779715279607502e-01  -6.9807490874264211e-01  -6.9822336033281307e-01  -6.9822975438851254e-01  -6.9815274981503705e-01  -6.9800765208812110e-01  -6.9793192293384898e-01  0.0000000000000000e+00  -2.8875726044954586e-01  -2.8875544522645186e-01  -2.8885413949740368e-01  -2.8891151928967485e-01  -2.8892180802139666e-01  -3.3315509510431779e-01  -3.3313325807455807e-01  -3.3308265518301194e-01  -3.3300249504390361e-01  -3.3297884942396860e-01  0.0000000000000000e+00  -6.9903790800061461e-01  -6.9906387274816961e-01  -6.9905959032405907e-01  -6.9903825523748153e-01  -6.9897510474066948e-01  -6.9885993810762892e-01  -6.9871228681112119e-01  0.0000000000000000e+00  -3.3685083584744019e-01  -3.3693075314482285e-01  -3.3706386396777138e-01  -3.3714088531891845e-01  -3.3716716331071833e-01  -3.8087600315263853e-01  -3.8084696523903327e-01  -3.8079372715340848e-01  -3.8072273254069816e-01  -3.8070795894203840e-01  0.0000000000000000e+00  -6.9996776885639378e-01  -7.0005398868546320e-01  -7.0008549284848287e-01  -7.0006627627692120e-01  -6.9999552758044170e-01  -6.9987100061812546e-01  -6.9969665215071764e-01  0.0000000000000000e+00  -3.8528626289373480e-01  -3.8532862880670687e-01  -3.8543506152479645e-01  -3.8550232264343537e-01  -3.8553169745092586e-01  -4.2862670603639719e-01  -4.2859672070566518e-01  -4.2856475430588609e-01  -4.2854312518984122e-01  -4.2857816431040596e-01  0.0000000000000000e+00  -7.0116204142952943e-01  -7.0126379338717637e-01  -7.0130770401343268e-01  -7.0129528873071867e-01  -7.0122701469975579e-01  -7.0110023885696515e-01  -7.0092231946019734e-01  0.0000000000000000e+00  -4.3393675828066630e-01  -4.3388862536796219e-01  -4.3391398490905486e-01  -4.3393939680393584e-01  -4.3396629072373655e-01  -4.7632955635735186e-01  -4.7630422670656042e-01  -4.7630864670527184e-01  -4.7635770429977087e-01  -4.7645750335525699e-01  0.0000000000000000e+00  -7.0259653081869178e-01  -7.0271107519059040e-01  -7.0276487036272473e-01  -7.0275760712206348e-01  -7.0269247264864587e-01  -7.0256736214423787e-01  -7.0238276251824372e-01  0.0000000000000000e+00  -4.8257464545955658e-01  -4.8243082971526735e-01  -4.8235896758437824e-01  -4.8233096343189563e-01  -4.8235132936350783e-01  -5.2388210290215087e-01  -5.2386544119936540e-01  -5.2391128344657290e-01  -5.2403378239363774e-01  -5.2419382605469578e-01  0.0000000000000000e+00  -7.0430049673850947e-01  -7.0441182811020420e-01  -7.0446612044639478e-01  -7.0446169407839243e-01  -7.0440185292768420e-01  -7.0428488329268590e-01  -7.0410771214344703e-01  0.0000000000000000e+00  -5.3100994702323867e-01  -5.3077835639195392e-01  -5.3061018533659865e-01  -5.3052827533173541e-01  -5.3053851720535750e-01  -5.7118369573460637e-01  -5.7117799716858031e-01  -5.7126199878902961e-01  -5.7144665365959790e-01  -5.7165003558022609e-01  0.0000000000000000e+00  -7.0626839547040665e-01  -7.0635921107374389e-01  -7.0640278116927635e-01  -7.0639658076220979e-01  -7.0634362567408304e-01  -7.0624321929963241e-01  -7.0608913541590890e-01  0.0000000000000000e+00  -5.7906526434757066e-01  -5.7876772052769221e-01  -5.7851848541010453e-01  -5.7838984264313886e-01  -5.7838761947576389e-01  -6.1815648467736495e-01  -6.1816233480148641e-01  -6.1827509689755600e-01  -6.1850091053899081e-01  -6.1872314365842507e-01  0.0000000000000000e+00  -7.0845803982101363e-01  -7.0851302291629081e-01  -7.0853608508805921e-01  -7.0852438744262913e-01  -7.0848014848180518e-01  -7.0840377767362694e-01  -7.0828664707998856e-01  0.0000000000000000e+00  -6.2660508493610001e-01  -6.2627155794853784e-01  -6.2596659252486853e-01  -6.2580415483189489e-01  -6.2578896237656767e-01  -6.6475924769112527e-01  -6.6477586279204381e-01  -6.6490406831681215e-01  -6.6514437752405486e-01  -6.6535773647720087e-01  0.0000000000000000e+00  -7.1080056473169773e-01  -7.1080897804049736e-01  -7.1080469164371995e-01  -7.1078477551011288e-01  -7.1075038675190549e-01  -7.1070307624853257e-01  -7.1063282396151162e-01  0.0000000000000000e+00  -6.7354980058867497e-01  -6.7321382204041635e-01  -6.7288436586791600e-01  -6.7270469836896551e-01  -6.7267774977690631e-01  -7.1099556227831129e-01  -7.1102064204689175e-01  -7.1114897992325266e-01  -7.1137519323784837e-01  -7.1155265855781558e-01  0.0000000000000000e+00  -7.1321006260971409e-01  -7.1316712652494529e-01  -7.1313235092426430e-01  -7.1310276941047246e-01  -7.1307841791703619e-01  -7.1306187803992582e-01  -7.1304279582754937e-01  0.0000000000000000e+00  -7.1988250920532693e-01  -7.1957724940934520e-01  -7.1925663631449599e-01  -7.1907786513916161e-01  -7.1904174388447240e-01  -7.5691285463189339e-01  -7.5694372595985648e-01  -7.5705703527651236e-01  -7.5724233982951794e-01  -7.5736113194126609e-01  0.0000000000000000e+00  -7.1559586203514491e-01  -7.1550308790188943e-01  -7.1543847468481592e-01  -7.1539902851848913e-01  -7.1538376971541240e-01  -7.1539608508961638e-01  -7.1542633401928901e-01  0.0000000000000000e+00  -7.6564983295961642e-01  -7.6540437400441752e-01  -7.6512439277524424e-01  -7.6496431804114007e-01  -7.6492256881838727e-01  -8.0260115167459067e-01  -8.0263317641432919e-01  -8.0271810243008201e-01  -8.0284082800733059e-01  -8.0288504062549548e-01  0.0000000000000000e+00  -7.1787412029779396e-01  -7.1773871164588843e-01  -7.1764820993904999e-01  -7.1759974002605997e-01  -7.1759149654566168e-01  -7.1762739105910833e-01  -7.1769942679697984e-01  0.0000000000000000e+00  -8.1095525068389529e-01  -8.1079190621736497e-01  -8.1058007572401214e-01  -8.1045423816984297e-01  -8.1041091210280292e-01  -8.4817556999491728e-01  -8.4820809127128161e-01  -8.4825544367178130e-01  -8.4829910924501051e-01  -8.4826052709400368e-01  0.0000000000000000e+00  -7.1997713865592050e-01  -7.1981065936726851e-01  -7.1970058000733983e-01  -7.1964460346260828e-01  -7.1964035998088405e-01  -7.1969193148176380e-01  -7.1979353297520565e-01  0.0000000000000000e+00  -8.5594737086412476e-01  -8.5588108575768851e-01  -8.5575679142716676e-01  -8.5567702800402234e-01  -8.5563633833725838e-01  -8.9377841052465690e-01  -8.9380146232911473e-01  -8.9380132759814701e-01  -8.9376218728033208e-01  -8.9364609414595275e-01  0.0000000000000000e+00  -7.2185951236567225e-01  -7.2167583888958409e-01  -7.2155368564983169e-01  -7.2149204151844504e-01  -7.2148814109181980e-01  -7.2154581342803559e-01  -7.2166195818894374e-01  0.0000000000000000e+00  -9.0081106972557357e-01  -9.0083881948068489e-01  -9.0081358741143913e-01  -9.0078760434163185e-01  -9.0075342421711424e-01  -9.3952700301956660e-01  -9.3954676928723946e-01  -9.3951035373461089e-01  -9.3939599000087526e-01  -9.3921042721415948e-01  0.0000000000000000e+00  -7.2350033798639990e-01  -7.2331366714019563e-01  -7.2318680735004115e-01  -7.2312087209315146e-01  -7.2311317514354423e-01  -7.2316703626822210e-01  -7.2328201978629536e-01  0.0000000000000000e+00  -9.4570834288445726e-01  -9.4584443051410649e-01  -9.4592106335823423e-01  -9.4594894161368015e-01  -9.4592423617405663e-01  -9.8556322339763125e-01  -9.8557667313178221e-01  -9.8549253247048885e-01  -9.8529800779192989e-01  -9.8505809482468287e-01  0.0000000000000000e+00  -7.2490252157486956e-01  -7.2472478468908808e-01  -7.2459815190114740e-01  -7.2452957176076238e-01  -7.2451617491830544e-01  -7.2455853374084778e-01  -7.2465862434272099e-01  0.0000000000000000e+00  -9.9089439086844844e-01  -9.9107801798990280e-01  -9.9123559466056366e-01  -9.9131484879662857e-01  -9.9130203264809402e-01  -1.0319651146680593e+00  -1.0319457904871332e+00  -1.0318301518112609e+00  -1.0316191065434379e+00  -1.0313806130168099e+00  0.0000000000000000e+00  -7.2609577723661067e-01  -7.2592235180562126e-01  -7.2579846766758460e-01  -7.2572762940167368e-01  -7.2570749472031248e-01  -7.2573737639769309e-01  -7.2582162480733159e-01  0.0000000000000000e+00  -1.0363629099244669e+00  -1.0366462636469376e+00  -1.0368939207370842e+00  -1.0370141915231768e+00  -1.0370137130145545e+00  -1.0786978317556222e+00  -1.0787249573264996e+00  -1.0786215368602450e+00  -1.0783884807887556e+00  -1.0781196509372257e+00  0.0000000000000000e+00  -7.2706660247170196e-01  -7.2691960548698920e-01  -7.2680466955797429e-01  -7.2674118992967640e-01  -7.2671922049087778e-01  -7.2671429325562187e-01  -7.2673899076800386e-01  0.0000000000000000e+00  -1.0824304221102685e+00  -1.0827279878691261e+00  -1.0829956840747903e+00  -1.0831457249711387e+00  -1.0831590708853565e+00  -1.1260889130511480e+00  -1.1260163150606040e+00  -1.1258382844967596e+00  -1.1255493798704661e+00  -1.1252320136620404e+00  0.0000000000000000e+00  -7.2784434439865764e-01  -7.2776665137148344e-01  -7.2762169939764543e-01  -7.2754440289405065e-01  -7.2755032152920796e-01  -7.2769726973527993e-01  -7.2797321543020199e-01  0.0000000000000000e+00  -1.1291105858249548e+00  -1.1293393343035210e+00  -1.1296093952655060e+00  -1.1297328073287658e+00  -1.1297406260531564e+00  -1.1733555558977402e+00  -1.1733936340120643e+00  -1.1733299087366775e+00  -1.1732059571265485e+00  -1.1730167959773905e+00  0.0000000000000000e+00  -7.2931169903473292e-01  -7.2840992758509626e-01  -7.2803659811868249e-01  -7.2793192852731103e-01  -7.2803768977001748e-01  -7.2835661809276420e-01  -7.2833423491841542e-01  0.0000000000000000e+00  -1.1758960125301667e+00  -1.1762931162235655e+00  -1.1765576942353879e+00  -1.1767367812748979e+00  -1.1767857337485019e+00  -1.2217499991812615e+00  -1.2217013188213255e+00  -1.2215962181701443e+00  -1.2213912094616872e+00  -1.2212604809065835e+00  0.0000000000000000e+00  0.0000000000000000e+00  0.0000000000000000e+00  0.0000000000000000e+00  0.0000000000000000e+00  0.0000000000000000e+00  0.0000000000000000e+00  0.0000000000000000e+00  0.0000000000000000e+00  -1.2242827812165871e+00  -1.2242687624223110e+00  -1.2242818173141807e+00  -1.2242212291056442e+00  -1.2241880223568513e+00  -1.2692617986350403e+00  -1.2692381741055399e+00  -1.2692203089797101e+00  -1.2693015909820446e+00  -1.2692659758780163e+00  0.0000000000000000e+00  0.0000000000000000e+00  0.0000000000000000e+00  0.0000000000000000e+00  0.0000000000000000e+00  0.0000000000000000e+00  0.0000000000000000e+00  0.0000000000000000e+00  0.0000000000000000e+00  -1.2713256383233948e+00  -1.2712941213914362e+00  -1.2713116625892653e+00  -1.2714398744230977e+00  -1.2714565823362300e+00  -1.3180213027429692e+00  -1.3180805767180441e+00  -1.3180616765504893e+00  -1.3178315005519567e+00  -1.3178425366679245e+00  0.0000000000000000e+00  0.0000000000000000e+00  0.0000000000000000e+00  0.0000000000000000e+00  0.0000000000000000e+00  0.0000000000000000e+00  0.0000000000000000e+00  0.0000000000000000e+00  0.0000000000000000e+00  -1.3194661946668935e+00  -1.3195016801001429e+00  -1.3194763630168418e+00  -1.3192493370419511e+00  -1.3192664407894006e+00  -1.3664344623907565e+00  -1.3660675664232766e+00  -1.3656484036130621e+00  -1.3656055843034121e+00  -1.3655728625414647e+00  0.0000000000000000e+00  0.0000000000000000e+00  0.0000000000000000e+00  0.0000000000000000e+00  0.0000000000000000e+00  0.0000000000000000e+00  0.0000000000000000e+00  0.0000000000000000e+00  0.0000000000000000e+00  -1.3671434411164156e+00  -1.3667713073822192e+00  -1.3663588288102850e+00  -1.3663186756903598e+00  -1.3662869072458101e+00  -1.4158232917224476e+00  -1.4132467640785837e+00  -1.4137649806392887e+00  -1.4138009656360915e+00  -1.4119925704307847e+00  0.0000000000000000e+00  0.0000000000000000e+00  0.0000000000000000e+00  0.0000000000000000e+00  0.0000000000000000e+00  0.0000000000000000e+00  0.0000000000000000e+00  0.0000000000000000e+00  0.0000000000000000e+00  -1.4157371318552865e+00  -1.4132555301811285e+00  -1.4137687391066924e+00  -1.4138020528714346e+00  -1.4120383353506822e+00  </DataArray> 
</PointData> 
</Piece>
</UnstructuredGrid>
</VTKFile>