<?xml version="1.0"?>
<VTKFile type="UnstructuredGrid"  version="0.1"  >
<UnstructuredGrid>
<Piece  NumberOfPoints="589" NumberOfCells="1080">
<Points>
<DataArray  type="Float64"  NumberOfComponents="3"  format="ascii">-9 0 0  -8 0 0  -7 0 0  -6 0 0  -5 0 0  -4 0 0  -3 0 0  -2 0 0  -1 0 0  0 0 0  1 0 0  2 0 0  3 0 0  4 0 0  5 0 0  6 0 0  7 0 0  8 0 0  9 0 0  -9 2 0  -8.000004899902851 1.999992137052049 0  -7.00001032030866 1.999985273151136 0  -6.000017484767025 1.999980223527261 0  -5.000029188626722 1.999977356734586 0  -4.000016881162552 1.999982943588497 0  -3.000004205189063 1.999988417010722 0  -1.999998078809224 1.999993624508637 0  -0.9999971861981483 1.999997729207625 0  4.596460227822162e-07 1.999999475741099 0  0.9999979506688875 1.999998077158458 0  1.999998319654689 1.999993811349655 0  3.000003637490416 1.999988541110087 0  4.000014630315408 1.999982742091648 0  5.000030711940887 1.999979850425895 0  6.000018811038651 1.999980968291057 0  7.000011292255414 1.999985429425247 0  8.000005414768099 1.999992142118401 0  9 2 0  -9.000000000004983 4 0  -8.000007717726776 3.999980278276363 0  -7.00001366444183 3.999963289458789 0  -6.00001681189091 3.999951715875135 0  -5.000017398632 3.999948124740865 0  -3.999999165806357 3.999950565100497 0  -2.999986943086397 3.999966194216875 0  -1.999983837734645 3.999986647777367 0  -0.99998864906743 4.000003089381732 0  2.242677395960725e-06 4.000009571201439 0  0.9999929984735565 4.000003950593726 0  1.999987753813904 3.999989210350044 0  2.999990670894336 3.999969221447579 0  4.000003041173287 3.999948838721672 0  5.00002180084461 3.999941063875725 0  6.000020093474193 3.999948563808238 0  7.000016019182176 3.999961853081758 0  8.000008978458164 3.999979703960774 0  9 4 0  -9 6 0  -8.000017619149022 5.999957489701063 0  -7.000028205617499 5.999919646530015 0  -6.000026381816978 5.999891280086787 0  -5.000010579652097 5.99987703134009 0  -3.999974622759348 5.999900090594581 0  -2.999958216074432 5.999948833199349 0  -1.999964525590398 6.00000006574172 0  -0.9999805793273749 6.000028661875644 0  3.006441675470997e-06 6.000034270659113 0  0.9999881150174124 6.000024549901164 0  1.999976741547349 5.999997912616851 0  2.999972612466904 5.999952941671729 0  3.99998158401801 5.999906057919087 0  5.00001324815464 5.999882127730134 0  6.000030843595909 5.999893003654878 0  7.000032611273448 5.999920032293208 0  8.000020292248681 5.999957487055824 0  9 6 0  -9 8 0  -8.000055645839973 7.999916041076757 0  -7.000092384608254 7.9998381058906 0  -6.000091863130691 7.999774382706786 0  -5.000038279701947 7.999738375449538 0  -3.999968770499617 7.999845895475119 0  -2.99998068918635 7.999972574773214 0  -2.000006066210168 8.000034847208736 0  -1.000008043954869 8.000042615570271 0  7.424266427274688e-06 8.000044983376538 0  1.000018745195833 8.000051264659188 0  2.000013473325581 8.000024101716974 0  2.999982405661798 7.999977951988728 0  3.999971895950319 7.999864770397714 0  5.000041998915771 7.999737209425359 0  6.000104898014006 7.999772845955626 0  7.000105542195869 7.999836517299098 0  8.000063491984728 7.999915045274093 0  9 8 0  -9 10 0  -8.000169258190651 9.999850531962474 0  -7.000305559198241 9.999699770668006 0  -6.000369547420408 9.999546709926571 0  -5.000306361466796 9.999391017852776 0  -4.000196523451138 9.999737280346547 0  -3.000212848446232 10.00003555706167 0  -2.000167627596891 9.999986333854181 0  -1.000071157555337 9.999970551325333 0  5.392362190039394e-07 9.999966686621864 0  1.000072077899869 9.999966759951995 0  2.000167884042709 9.999964019447649 0  3.000251426869641 10.00007357982729 0  4.000240295386757 9.999778871297368 0  5.000369652221399 9.99939049985529 0  6.000427874967322 9.999540624659504 0  7.00034918888201 9.99969361827301 0  8.000192418042356 9.999846923549066 0  9 10 0  -9 12 0  -8.000414502493491 11.999790269044 0  -7.000807663062983 11.99957075660572 0  -6.001155305569182 11.99932977683064 0  -5.001427387544028 11.99905105821523 0  -4.00137105236212 11.99968070154306 0  -3.001419736546418 12.00030390406055 0  -2.000957628450275 12.00023158122161 0  -1.000446361890233 12.00019393952948 0  8.276003052965471e-05 12.00018940184199 0  1.000615470584751 12.00021952812373 0  2.001139243666535 12.00029232270081 0  3.001629099547338 12.00042755594642 0  4.001572639429445 11.99971893262158 0  5.001611787996272 11.99900432577317 0  6.001298003320509 11.99929710430897 0  7.00090493151284 11.99954958084789 0  8.000463783613903 11.99977978432081 0  9 12 0  -9 14 0  -8.000744709945813 13.99976921435613 0  -7.001491190834455 13.99952775439282 0  -6.002242195720258 13.9992640072951 0  -5.003003051688797 13.99896452090501 0  -4.003010561708967 13.99969780670047 0  -3.003013069764811 14.00044021644805 0  -2.001945029131965 14.00033825643798 0  -1.000893302949102 14.00028504699316 0  0.0001507656203961488 14.00027358934593 0  1.001195273980688 14.00030178530567 0  2.002247488912048 14.00037110662192 0  3.003312731678926 14.00048524878527 0  4.003320005919987 13.99969097446584 0  5.003327300805997 13.9989012866432 0  6.002484213266897 13.99921514233042 0  7.00165235173889 13.99949484611506 0  8.000825299754148 13.99975271201821 0  9 14 0  -9 16 0  -8.001067283742671 15.99979091136112 0  -7.00215571506029 15.9995740164715 0  -6.003288217944342 15.99934136954019 0  -5.004491376388446 15.99908487408709 0  -4.004534394742448 15.99970569980571 0  -3.004491672630676 16.0003229681501 0  -2.002868618618158 16.00025038459417 0  -1.001310224901503 16.00020951619681 0  0.0002170817156243441 16.00019949879734 0  1.001744994896119 16.00021987559535 0  2.003305146567591 16.00027094427101 0  3.004931114797415 16.0003535968339 0  4.004977226975382 15.9996701234263 0  5.004938188581654 15.99898590525255 0  6.003623707018582 15.99927003158714 0  7.002379431122681 15.99952763355179 0  8.001179145496382 15.99976804139775 0  9 16 0  -9 18 0  -8.001304687609851 17.99984384709114 0  -7.002642914132808 17.99968334536637 0  -6.004049941171336 17.99951421977683 0  -5.005564476242135 17.99933236564794 0  -4.005629793073802 17.99970630598202 0  -3.005565006235121 18.000079509374 0  -2.003535448331739 18.00003603371823 0  -1.001603653641318 18.00001097740175 0  0.0002809805512293773 18.00000422470819 0  1.002166625243071 18.00001558532425 0  2.004101386880904 18.00004481988573 0  3.006135652237283 18.00009154623819 0  4.006203663137956 17.99965421909934 0  5.006139890805549 17.99921786210456 0  6.004480294296505 17.99943118337527 0  7.002929234355085 17.99962929617929 0  8.001447673843018 17.99981720504583 0  9 18 0  -9 20 0  -8.001407400185554 19.999914169525 0  -7.002853844875748 19.99982718512961 0  -6.004379870297544 19.99973801859163 0  -5.006029001373735 19.99964589170384 0  -4.006103652616447 19.99970470163935 0  -3.006028316277417 19.9997627350077 0  -2.003813357105868 19.99974828895155 0  -1.001709431926385 19.99973951784017 0  0.0003408313831867938 19.99973679157073 0  1.002392763416651 19.99974008580355 0  2.004501699913515 19.99974899641777 0  3.006725040276061 19.99976270425597 0  4.006802407607911 19.99964584143299 0  5.00672690479413 19.99952960584577 0  6.004900580059701 19.9996532166797 0  7.003199705541521 19.99977179601785 0  8.00157995025574 19.99988681781414 0  8.999999999981892 19.99999999999742 0  -9 22 0  -8.001353435059944 21.99998909903702 0  -7.002745384700381 21.99997975426133 0  -6.004215583228277 21.99997366597105 0  -5.005806202993218 21.99997282603813 0  -4.005879203597149 21.99970014226564 0  -3.005805258539615 21.99942664161665 0  -2.003649311706156 21.99943794055181 0  -1.001601579281012 21.99944398491547 0  0.0003940299247480861 21.99944538378849 0  1.002391946462217 21.99944222194189 0  2.004446629509778 21.99943407004455 0  3.006614259393757 21.99941997507774 0  4.006689433532446 21.99964270217072 0  5.006613365508414 21.99986573568232 0  6.004816990265686 21.99989536946719 0  7.003144447309483 21.9999285137317 0  8.001552405133038 21.99996376548402 0  9 22 0  -9 24 0  -8.001144888865987 24.00005780704789 0  -7.002322824209965 24.00011930188924 0  -6.003567770935698 24.00018832327546 0  -5.004915588518204 24.00026901907352 0  -4.00497820652353 23.99969293967014 0  -3.004915078941738 23.9991161245579 0  -2.003054545399237 23.99914852484345 0  -1.001286213458749 23.99916695455109 0  0.0004380640377749269 23.99917214011935 0  1.002165180584064 23.99916423511131 0  2.003942069460791 23.99914282239197 0  3.005816998769966 23.999106910371 0  4.005880682677246 23.99964364487584 0  5.005813313004363 24.0001805026353 0  6.004236089885576 24.00012346254621 0  7.002766004196128 24.00007678723726 0  8.001365773881655 24.00003676745122 0  9 24 0  -9 26 0  -8.000803562420295 26.00011177791098 0  -7.001630945707509 26.00022875643474 0  -6.002506630133894 26.00035629118806 0  -5.003456321795469 26.00050005619153 0  -4.003501889980325 25.99968359105616 0  -3.003456736256565 25.99886652474201 0  -2.002093045360915 25.9989147967418 0  -1.000795567627205 25.99894270524292 0  0.0004708349358568802 25.99895106245951 0  1.001740459760405 25.99894007932936 0  2.003047649409339 25.99890936519985 0  3.004427671281031 25.99885792787958 0  4.004472875220338 25.99964752836586 0  5.004421316879311 26.00043709885476 0  6.003224690112702 26.00031008867743 0  7.002106959687734 26.00019843742632 0  8.001040761572265 26.00009676292768 0  9 26 0  -9 28 0  -8.000366241440172 28.00014496175154 0  -7.000744572101465 28.00029599960761 0  -6.0011474447759 28.00045934798796 0  -5.001587904326668 28.00064156269715 0  -4.001611885112585 27.99967289915389 0  -3.001589456509527 27.99870383725289 0  -2.000868731857722 27.99876231193803 0  -1.000181543975615 27.99879644898992 0  0.0004908063670602806 27.99880713414292 0  1.001166597750965 27.99879462978238 0  2.001864152472821 27.99875857882974 0  3.002602301161001 27.99869800369364 0  4.002624442399663 27.99965346939875 0  5.002593713061546 28.00060881896732 0  6.001895718970538 28.00043528429777 0  7.001240543282791 28.00028019153537 0  8
[...]
<PointData  Scalars="f_44-1"> 
<DataArray  type="Float64"  Name="f_44-1"  format="ascii">8.4055676425853949e-04  -1.7649721725125931e-06  3.3536043343191705e-05  -5.9100567361882573e-05  -2.8379748995486305e-04  0.0000000000000000e+00  0.0000000000000000e+00  0.0000000000000000e+00  0.0000000000000000e+00  0.0000000000000000e+00  0.0000000000000000e+00  0.0000000000000000e+00  0.0000000000000000e+00  0.0000000000000000e+00  8.3351076873456242e-04  9.3259856544270274e-06  4.3133555359669664e-05  -6.3757947524198242e-05  -2.7683964328185890e-04  5.5549917264005370e-02  5.5556145695524056e-02  5.5397971703970421e-02  5.5197338868975918e-02  5.5123427932702029e-02  0.0000000000000000e+00  0.0000000000000000e+00  0.0000000000000000e+00  0.0000000000000000e+00  0.0000000000000000e+00  0.0000000000000000e+00  0.0000000000000000e+00  0.0000000000000000e+00  0.0000000000000000e+00  5.5164424593978759e-02  5.5152959775307563e-02  5.4982451534475417e-02  5.4788597630098863e-02  5.4719827164038275e-02  1.1078675866388224e-01  1.1076139691200226e-01  1.1071400080440254e-01  1.1067777761267372e-01  1.1070568350870388e-01  0.0000000000000000e+00  0.0000000000000000e+00  0.0000000000000000e+00  0.0000000000000000e+00  0.0000000000000000e+00  0.0000000000000000e+00  0.0000000000000000e+00  0.0000000000000000e+00  0.0000000000000000e+00  1.0997590952536695e-01  1.0999551867401684e-01  1.0998210497904763e-01  1.0994287041615568e-01  1.0994669037144855e-01  1.6613346308349844e-01  1.6614740819122795e-01  1.6618583171990914e-01  1.6623396913473615e-01  1.6625204493779375e-01  0.0000000000000000e+00  0.0000000000000000e+00  0.0000000000000000e+00  0.0000000000000000e+00  0.0000000000000000e+00  0.0000000000000000e+00  0.0000000000000000e+00  0.0000000000000000e+00  0.0000000000000000e+00  1.6498578986244888e-01  1.6498126766745816e-01  1.6498723084622091e-01  1.6499553318289656e-01  1.6500157457762013e-01  2.2147230509845101e-01  2.2146338155146514e-01  2.2140921119220522e-01  2.2129501839143992e-01  2.2122784999641135e-01  0.0000000000000000e+00  0.0000000000000000e+00  0.0000000000000000e+00  0.0000000000000000e+00  0.0000000000000000e+00  0.0000000000000000e+00  0.0000000000000000e+00  0.0000000000000000e+00  0.0000000000000000e+00  2.1988732075404777e-01  2.1998301169016235e-01  2.2002895895600394e-01  2.2004904217772914e-01  2.2006127999866321e-01  2.7689612774182371e-01  2.7689583223023456e-01  2.7687838279115129e-01  2.7688560939048545e-01  2.7685656765100203e-01  0.0000000000000000e+00  8.8299147743037409e-01  8.8289810639819133e-01  8.8275286179179702e-01  8.8265614476451515e-01  8.8276134770040138e-01  8.8299446831584183e-01  8.8291310856959937e-01  0.0000000000000000e+00  2.7513391815245597e-01  2.7516280312747682e-01  2.7515001079687407e-01  2.7515053825281549e-01  2.7515716030688669e-01  3.3238161793093313e-01  3.3238501749246674e-01  3.3236661950973678e-01  3.3234678623435138e-01  3.3223327340956693e-01  0.0000000000000000e+00  8.8276416439838823e-01  8.8251040883388610e-01  8.8236685443501472e-01  8.8233084797981487e-01  8.8240832485687326e-01  8.8254445009849380e-01  8.8284266099616249e-01  0.0000000000000000e+00  3.3022025725354293e-01  3.3027624013373758e-01  3.3028526004313552e-01  3.3028115129220781e-01  3.3028187194801345e-01  3.8797264339014970e-01  3.8797574785782690e-01  3.8793154637604477e-01  3.8785089897452651e-01  3.8765668649006846e-01  0.0000000000000000e+00  8.8204013458226793e-01  8.8176299138337877e-01  8.8159043434047057e-01  8.8154920009964322e-01  8.8163359210555092e-01  8.8184628576797119e-01  8.8216623470036815e-01  0.0000000000000000e+00  3.8519097524699297e-01  3.8536539573008616e-01  3.8543447206184228e-01  3.8547748987806363e-01  3.8548027791015094e-01  4.4378280178201146e-01  4.4378002609403194e-01  4.4368715980317508e-01  4.4350552097473861e-01  4.4317357840098431e-01  0.0000000000000000e+00  8.8094752163190504e-01  8.8053594805325719e-01  8.8030227503804737e-01  8.8024249323222392e-01  8.8035214472890144e-01  8.8063354219730872e-01  8.8110610230634334e-01  0.0000000000000000e+00  4.4021297624806721e-01  4.4056565573993567e-01  4.4076672580753740e-01  4.4087349926574171e-01  4.4088610379416415e-01  4.9997442168862338e-01  4.9996246055273319e-01  4.9981443424642136e-01  4.9952539665282297e-01  4.9905967472437407e-01  0.0000000000000000e+00  8.7913754035468805e-01  8.7862703017267052e-01  8.7833320761022948e-01  8.7825171997687546e-01  8.7837879022012599e-01  8.7871700759022286e-01  8.7927781180134856e-01  0.0000000000000000e+00  4.9567080461565771e-01  4.9617633184472293e-01  4.9649558708780711e-01  4.9666722305677452e-01  4.9668976326309094e-01  5.5671244135049625e-01  5.5669096093557990e-01  5.5649679102967098e-01  5.5612221513733129e-01  5.5556261058880163e-01  0.0000000000000000e+00  8.7640422507248172e-01  8.7584520224004181e-01  8.7552555744331717e-01  8.7543561132328540e-01  8.7557028626967059e-01  8.7593371272774179e-01  8.7653756706781394e-01  0.0000000000000000e+00  5.5180199347157444e-01  5.5241691016385286e-01  5.5282819099018221e-01  5.5305039325513783e-01  5.5308195517235970e-01  6.1412193583571695e-01  6.1409278303864323e-01  6.1387143457980109e-01  6.1344985222930171e-01  6.1285495166396697e-01  0.0000000000000000e+00  8.7267063738356265e-01  8.7212508479375650e-01  8.7181468885958824e-01  8.7172658668050218e-01  8.7185704942370790e-01  8.7221111668296580e-01  8.7279788998575003e-01  0.0000000000000000e+00  6.0879441440631288e-01  6.0945563941558589e-01  6.0991746970589522e-01  6.1016813808369086e-01  6.1020705312759382e-01  6.7226088841896103e-01  6.7222730344822157e-01  6.7200284981428082e-01  6.7158083049062400e-01  6.7101657735358067e-01  0.0000000000000000e+00  8.6795838939465364e-01  8.6748844229218403e-01  8.6722369792081255e-01  8.6714988876121846e-01  8.6726486673856362e-01  8.6757370189549532e-01  8.6808179552359788e-01  0.0000000000000000e+00  6.6673904789911420e-01  6.6737635709382936e-01  6.6783950708739725e-01  6.6809223547055252e-01  6.6813536572768650e-01  7.3110765059603311e-01  7.3107358306513903e-01  7.3087116344408543e-01  7.3049612979447776e-01  7.3002624261108817e-01  0.0000000000000000e+00  8.6240121142865145e-01  8.6206091853707512e-01  8.6187333360366458e-01  8.6182439563319546e-01  8.6191378696881560e-01  8.6214608152898742e-01  8.6252244043345772e-01  0.0000000000000000e+00  7.2562033950276850e-01  7.2616620329638748e-01  7.2658134724049450e-01  7.2680927119607686e-01  7.2685257155890282e-01  7.9056104713749331e-01  7.9053053426525410e-01  7.9037294755804977e-01  7.9008710678449923e-01  7.8976512472269400e-01  0.0000000000000000e+00  8.5622585234704507e-01  8.5605465486349541e-01  8.5596699930285214e-01  8.5595061764350899e-01  8.5600703275702517e-01  8.5613986249241170e-01  8.5634579801237887e-01  0.0000000000000000e+00  7.8532111576094898e-01  7.8571848877039641e-01  7.8604193105648767e-01  7.8622110510299037e-01  7.8626040360403104e-01  8.5045082075955403e-01  8.5042751816602602e-01  8.5033256680152391e-01  8.5016814756592896e-01  8.5003134633715494e-01  0.0000000000000000e+00  8.4972595549454721e-01  8.4974452072895701e-01  8.4976843775455957e-01  8.4978861537252559e-01  8.4980820048328054e-01  8.4982952171870285e-01  8.4984503651315491e-01  0.0000000000000000e+00  8.4563695661579175e-01  8.4584536011462996e-01  8.4604375989898029e-01  8.4615576267707893e-01  8.4618736738913558e-01  9.1055658211548229e-01  9.1054319105176296e-01  9.1052165997394252e-01  9.1049745495804690e-01  9.1056284487054251e-01  0.0000000000000000e+00  8.4322925649338765e-01  8.4343752677851769e-01  8.4357244437153445e-01  8.4362914333492445e-01  8.4361202207597596e-01  8.4352190799516780e-01  8.4334771206469417e-01  0.0000000000000000e+00  9.0629954988549266e-01  9.0629911731129020e-01  9.0635280047273004e-01  9.0638658021891561e-01  9.0640770660661552e-01  9.7063107036884611e-01  9.7062943151854697e-01  9.7068415693075083e-01  9.7080381181263553e-01  9.7106634945737957e-01  0.0000000000000000e+00  8.3706181556066983e-01  8.3743923554698452e-01  8.3767260233724095e-01  8.3776184741673998e-01  8.3771214326461796e-01  8.3752271742526074e-01  8.3718006011982038e-01  0.0000000000000000e+00  9.6700611553171223e-01  9.6679934450394278e-01  9.6670414165053087e-01  9.6665706192721967e-01  9.6666609967769601e-01  1.0304302013683726e+00  1.0304401961060665e+00  1.0305654128082375e+00  1.0308165195694474e+00  1.0312492852710498e+00  0.0000000000000000e+00  8.3151297492132870e-01  8.3202080699914638e-01  8.3232956471981390e-01  8.3244394859990956e-01  8.3236937211994355e-01  8.3210349847606535e-01  8.3163192827301846e-01  0.0000000000000000e+00  1.0274514887393578e+00  1.0270630567217569e+00  1.0268307221268504e+00  1.0267086421034726e+00  1.0267052676228312e+00  1.0897328684660232e+00  1.0897548292084125e+00  1.0899376201283693e+00  1.0902933842479614e+00  1.0908501105017767e+00  0.0000000000000000e+00  8.2680429493060770e-01  8.2739001584509564e-01  8.2774317143691700e-01  8.2787271844797750e-01  8.2778377263869951e-01  8.2747262647937359e-01  8.2692576727634570e-01  0.0000000000000000e+00  1.0873612710493188e+00  1.0868355891112453e+00  1.0864916523864718e+00  1.0863083268081093e+00  1.0862934931581318e+00  1.1483815314125352e+00  1.1484102981478050e+00  1.1486281876684077e+00  1.1490498432028782e+00  1.1496726149905978e+00  0.0000000000000000e+00  8.2306599894726096e-01  8.2366892824984128e-01  8.2403124315988729e-01  8.2416488647605401e-01  8.2407388621323985e-01  8.2375327515382024e-01  8.2319254944557496e-01  0.0000000000000000e+00  1.1465241666487653e+00  1.1459148733744726e+00  1.1454979631425706e+00  1.1452735421832048e+00  1.1452493943333195e+00  1.2062670433306453e+00  1.2063029755221990e+00  1.2065400807911928e+00  1.2069887437047297e+00  1.2076104566685175e+00  0.0000000000000000e+00  8.2032121817636061e-01  8.2088199781723004e-01  8.2121952499490558e-01  8.2134569140975089e-01  8.2126293223659008e-01  8.2096749638489686e-01  8.2045439367233808e-01  0.0000000000000000e+00  1.2047879279882683e+00  1.2041791311842787e+00  1.2037329433330315e+00  1.2034906234339895e+00  1.2034597699192360e+00  1.2633957556666651e+00  1.2634371457704527e+00  1.2636562162790710e+00  1.2640543713352337e+00  1.2645885367424379e+00  0.0000000000000000e+00  8.1848563378187966e-01  8.1895924065666192e-01  8.1924071528174891e-01  8.1934971424759540e-01  8.1928843821379305e-01  8.1905221241528314e-01  8.1863702417259199e-01  0.0000000000000000e+00  1.2621994698002890e+00  1.2615937345773518e+00  1.2611585185944567e+00  1.2609236792529956e+00  1.2608904089024173e+00  1.3198019967897343e+00  1.3198300363033408e+00  1.3200185955563730e+00  1.3204053288894708e+00  1.3208995290818015e+00  0.0000000000000000e+00  8.1741973550931379e-01  8.1774152885466089e-01  8.1795486868701572e-01  8.1803891076070467e-01  8.1799627687045573e-01  8.1782065528160230e-01  8.1753975233101139e-01  0.0000000000000000e+00  1.3185884627268103e+00  1.3181757383630077e+00  1.3178203737716174e+00  1.3176194395188778e+00  1.3175857670482649e+00  1.3755919193466213e+00  1.3756392298454989e+00  1.3758123915855647e+00  1.3761053973460773e+00  1.3764025067861860e+00  0.0000000000000000e+00  8.1674221010065584e-01  8.1704286935220638e-01  8.1717916874102170e-01  8.1725611424327083e-01  8.1721909964563688e-01  8.1707422348000391e-01  8.1681899343051012e-01  0.0000000000000000e+00  1.3745734726051078e+00  1.3741484200699106e+00  1.3738470682803099e+00  1.3736915275135744e+00  1.3736682180479298e+00  1.4310426124973354e+00  1.4310363195717024e+00  1.4311089177286169e+00  1.4311945202279313e+00  1.4313417513278905e+00  0.0000000000000000e+00  8.1668254593716749e-01  8.1659592377356172e-01  8.1682678471627801e-01  8.1693109187835700e-01  8.1683489016777044e-01  8.1669157145391769e-01  8.1659719972267675e-01  0.0000000000000000e+00  1.4296033090049678e+00  1.4294924607549180e+00  1.4293931565348996e+00  1.4293232642905851e+00  1.4292945643597137e+00  1.4859741339745827e+00  1.4860240368344217e+00  1.4860658388937269e+00  1.4861458191902437e+00  1.4862608719051849e+00  0.0000000000000000e+00  0.0000000000000000e+00  0.0000000000000000e+00  0.0000000000000000e+00  0.0000000000000000e+00  0.0000000000000000e+00  0.0000000000000000e+00  0.0000000000000000e+00  0.0000000000000000e+00  1.4845987176142017e+00  1.4846434470367120e+00  1.4846482156435976e+00  1.4846700082973907e+00  1.4847106041753779e+00  1.5413955870173131e+00  1.5413895787889498e+00  1.5414116703296976e+00  1.5414163375446048e+00  1.5413975624647258e+00  0.0000000000000000e+00  0.0000000000000000e+00  0.0000000000000000e+00  0.0000000000000000e+00  0.0000000000000000e+00  0.0000000000000000e+00  0.0000000000000000e+00  0.0000000000000000e+00  0.0000000000000000e+00  1.5403414325324207e+00  1.5403261460749527e+00  1.5403414048416797e+00  1.5403367074234633e+00  1.5403069752738618e+00  1.5958288860337915e+00  1.5957230433457816e+00  1.5957258241163421e+00  1.5957595667940725e+00  1.5956593363464595e+00  0.0000000000000000e+00  0.0000000000000000e+00  0.0000000000000000e+00  0.0000000000000000e+00  0.0000000000000000e+00  0.0000000000000000e+00  0.0000000000000000e+00  0.0000000000000000e+00  0.0000000000000000e+00  1.5950994583577527e+00  1.5950134479226592e+00  1.5950209656442111e+00  1.5950582941983222e+00  1.5949647864893679e+00  1.6503420329085337e+00  1.6511845639277787e+00  1.6517868423600373e+00  1.6521689260666812e+00  1.6528755446633228e+00  0.0000000000000000e+00  0.0000000000000000e+00  0.0000000000000000e+00  0.0000000000000000e+00  0.0000000000000000e+00  0.0000000000000000e+00  0.0000000000000000e+00  0.0000000000000000e+00  0.0000000000000000e+00  1.6500508530717288e+00  1.6508568839679489e+00  1.6514329979370663e+00  1.6517935243833559e+00  1.6524746794685989e+00  1.7090119756626874e+00  1.7065076626194562e+00  1.7055645125263641e+00  1.7061970925520877e+00  1.7048447519684440e+00  0.0000000000000000e+00  0.0000000000000000e+00  0.0000000000000000e+00  0.0000000000000000e+00  0.0000000000000000e+00  0.0000000000000000e+00  0.0000000000000000e+00  0.0000000000000000e+00  0.0000000000000000e+00  1.7090221794474099e+00  1.7065096934280211e+00  1.7055682028129109e+00  1.7061975796389315e+00  1.7048464857461250e+00  </DataArray> 
</PointData> 
</Piece>
</UnstructuredGrid>
</VTKFile>