<?xml version="1.0"?>
<VTKFile type="UnstructuredGrid"  version="0.1"  >
<UnstructuredGrid>
<Piece  NumberOfPoints="589" NumberOfCells="1080">
<Points>
<DataArray  type="Float64"  NumberOfComponents="3"  format="ascii">-9 0 0  -8 0 0  -7 0 0  -6 0 0  -5 0 0  -4 0 0  -3 0 0  -2 0 0  -1 0 0  0 0 0  1 0 0  2 0 0  3 0 0  4 0 0  5 0 0  6 0 0  7 0 0  8 0 0  9 0 0  -9 2 0  -8.000003005598881 1.999995047476641 0  -7.000006367195025 1.999990718269932 0  -6.000010887986978 1.999987520462975 0  -5.000018374262625 1.999985680823303 0  -4.000010625864554 1.999989206958509 0  -3.000002589545886 1.999992635499459 0  -1.9999986673361 1.999995883594348 0  -0.9999980204813333 1.999998432539843 0  6.090837359735381e-07 1.999999483567686 0  0.999999185947579 1.99999852905245 0  1.999999652269869 1.999995725284217 0  3.000003359100161 1.999992224469044 0  4.000010838309074 1.999988250901831 0  5.000021822488766 1.999985902941475 0  6.000013515610931 1.999986917141007 0  7.000008153593288 1.999990077290477 0  8.000003913514121 1.999994674177407 0  9 2 0  -9.000000000004983 4 0  -8.000004587185641 3.999987601830836 0  -7.000008097623636 3.999976911045939 0  -6.000009914020087 3.999969608314423 0  -5.000010202324711 3.999967312245629 0  -3.99999868502037 3.999968712056456 0  -2.999990895969773 3.99997843698686 0  -1.999988801386496 3.999991213430294 0  -0.9999916548742622 4.000001458596188 0  2.803503290423799e-06 4.000005412877274 0  0.9999972057862028 4.000001662800416 0  1.999994196630243 3.999992042719581 0  2.999996447138267 3.999978961474195 0  4.000004787910829 3.999965450179015 0  5.000017203326279 3.999959701861469 0  6.000015251696865 3.999965250628102 0  7.000011819348766 3.999974407848164 0  8.000006520665009 3.999986432831428 0  9 4 0  -9 6 0  -8.000010475586564 5.999973327379506 0  -7.000016604221011 5.99994955229018 0  -6.000015052411401 5.999931670182487 0  -5.00000482824352 5.999922595385632 0  -3.999982132971328 5.999936799618098 0  -2.999971637149119 5.999967150776912 0  -1.999975280844025 5.999999128935343 0  -0.9999850827448007 6.000017062099018 0  4.783766109755247e-06 6.000020525718907 0  0.9999955337909536 6.000014170495527 0  1.999988510221096 5.999996897550495 0  2.99998615954848 5.999967778901075 0  3.999992230241058 5.999937277620252 0  5.000012791079498 5.999921315995874 0  6.000022910676068 5.999929151020917 0  7.000022950202887 5.999947268208872 0  8.000014015368109 5.999972023572632 0  9 6 0  -9 8 0  -8.000033749737085 7.999947466418563 0  -7.000055831311361 7.999898625299518 0  -6.000054879397768 7.999858506522776 0  -5.000021013647081 7.999835422684204 0  -3.999977463761866 7.999902115130522 0  -2.999984143118958 7.999980899148166 0  -1.999999360156748 8.000020025433628 0  -1.000000261919736 8.000025411036509 0  9.524818759968319e-06 8.000027114201753 0  1.000016600862038 8.000031004407417 0  2.000013193091505 8.000013271288395 0  2.999993535031733 7.999983133105524 0  3.999987105840666 7.999910205362355 0  5.000032121914156 7.999828183141886 0  6.000070887193564 7.999851928302415 0  7.000069975179279 7.999893580202277 0  8.00004182925592 7.999944733405356 0  9 8 0  -9 10 0  -8.000103679779283 9.999906849234673 0  -7.000187174344295 9.999812830048104 0  -6.000226343627419 9.999717238052652 0  -5.00018748766768 9.999619748054489 0  -4.000119097090099 9.999833385684664 0  -3.000127824009149 10.00001785032467 0  -2.000098901711424 9.999989105938848 0  -1.00003870025692 9.999979912369904 0  6.5008032828486e-06 9.999977663840752 0  1.000051838249459 9.999977538578587 0  2.000112733159745 9.999975228553252 0  3.00016562352908 10.00004375254899 0  4.000158712282643 9.999854787663029 0  5.00024172152908 9.999606310775864 0  6.000277532778421 9.999703110176988 0  7.000225910068531 9.999801904824855 0  8.000124359335945 9.999901001115754 0  9 10 0  -9 12 0  -8.000254273905457 11.99986973436447 0  -7.000495692856227 11.99973337419282 0  -6.000709665752129 11.99958364518061 0  -5.00087804446305 11.99941043192275 0  -4.000843014971317 11.999797015159 0  -3.000871682811317 12.00017954940354 0  -2.000578171896096 12.00013697018469 0  -1.000255407921989 12.00011572470574 0  7.752741919576266e-05 12.00011490611001 0  1.000411827426567 12.00013561219246 0  2.000739514425821 12.00018299600289 0  3.001044488162913 12.00026965384833 0  4.001008627493535 11.99981587297628 0  5.00103467677917 11.99935823358623 0  6.000833712969659 11.99954638506619 0  7.000581455490089 11.99970906844348 0  8.000298061086491 11.99985768682664 0  9 12 0  -9 14 0  -8.000456131025212 13.99985702955262 0  -7.000913744247334 13.99970744892556 0  -6.001374934241666 13.99954406991654 0  -5.001843429117423 13.99935857388931 0  -4.001847883779422 13.99980621580115 0  -3.001847835217513 14.00025936211086 0  -2.001174752081194 14.00019955909908 0  -1.000512916809781 14.00016988241281 0  0.0001431639154197727 14.00016610124893 0  1.000798546752508 14.00018704170285 0  2.001457649323221 14.00023376499067 0  3.002123537229847 14.00030872907395 0  4.002127984857348 13.99979753484904 0  5.002133945967921 13.99928913673075 0  6.001594622476957 13.99949167915894 0  7.00106128608964 13.99967258045301 0  8.000530264643155 13.99983964223052 0  9 14 0  -9 16 0  -8.000651847377949 15.99987078628966 0  -7.001317138265691 15.99973676170782 0  -6.002010417608131 15.99959303000965 0  -5.002748521546067 15.99943460766626 0  -4.002774973504756 15.99980978389245 0  -3.002747150696957 16.00018263233063 0  -2.001726906007767 16.00014182243415 0  -1.000747639091911 16.0001206043951 0  0.0002116338065898021 16.00011854444872 0  1.001170700268073 16.00013547487979 0  2.002149270662684 16.00017170795494 0  3.003168228085095 16.00022793593185 0  4.003197246565176 15.99978370439643 0  5.003173703258025 15.99933886242772 0  6.002330826309168 15.99952364068115 0  7.001531394507519 15.99969152276423 0  8.000759162441579 15.99984845225983 0  9 16 0  -9 18 0  -8.000793566328358 17.99990379151455 0  -7.00160817927701 17.99980492510997 0  -6.002465955838517 17.99970078868758 0  -5.003391165363009 17.99958887982433 0  -4.003431415942485 17.99980884147229 0  -3.003390168625694 18.00002821662655 0  -2.002115884836955 18.00000587193613 0  -1.000902714608113 17.99999485201317 0  0.0002809468008463493 17.99999518376293 0  1.001465199308846 18.00000685341986 0  2.0026801025363 18.00002982276923 0  3.003957134563826 18.0000639710169 0  4.004000085656055 17.99977293760583 0  5.003960603944329 17.99948238846603 0  6.002892376414648 17.99962325469746 0  7.00189215078141 17.99975431769037 0  8.000935461317141 17.99987880563961 0  9 18 0  -9 20 0  -8.00085089372276 19.99994742500843 0  -7.001726155701545 19.99989417451797 0  -6.002651083855087 19.99983965080678 0  -5.003652840922069 19.99978341302048 0  -4.003698807726185 19.99980652600484 0  -3.003651285816123 19.99982904541767 0  -2.0022612513218 19.99982473487568 0  -1.000940142056009 19.99982381019786 0  0.0003479048591040885 19.99982658960509 0  1.001637500050435 19.99983314894224 0  2.00296327294833 19.99984333109745 0  3.004361152012944 19.99985672447812 0  4.004410200292405 19.99976689597395 0  5.004362953028703 19.9996773552462 0  6.003181014535708 19.99976210228876 0  7.00207820009604 19.99984342230482 0  8.001026547509156 19.99992233212618 0  8.999999999967253 19.99999999999755 0  -9 22 0  -8.000810555817388 21.99999375742618 0  -7.001645055056771 21.99998851767516 0  -6.002528201885236 21.99998537296089 0  -5.00348622021648 21.99998559627003 0  -4.003531033099899 21.99980247485664 0  -3.00348460490041 21.99961875882986 0  -2.002131783486691 21.99963009197644 0  -1.000845719433578 21.99963799417795 0  0.0004086874136399735 21.99964291897946 0  1.001665526316307 21.99964499456563 0  2.002958926553993 21.99964403049312 0  3.004324111135032 21.99963951207739 0  4.004372041412135 21.99976424150925 0  5.004324097260924 21.99988908215502 0  6.003152286645723 21.99991465491077 0  7.002059074613626 21.99994216221205 0  8.001016958208263 21.99997081614382 0  9 22 0  -9 24 0  -8.000674240684818 24.00003608040358 0  -7.001368934109783 24.00007448358076 0  -6.002105116906449 24.00011762619095 0  -5.002904975621478 24.00016811572598 0  -4.002943167024781 23.99979699574058 0  -3.002903643463855 23.99942534801835 0  -2.001736139669588 23.99944913724342 0  -1.00062505716895 23.99946405525532 0  0.0004597726214270897 23.99947061355913 0  1.001547761985327 23.99946896601368 0  2.002668373680727 23.99945891098153 0  3.003851928535537 23.99943988918197 0  4.003892912821946 23.99976437387629 0  5.003850163153457 24.00008887225841 0  6.00280833795272 24.00005946041805 0  7.001835072700024 24.00003630835892 0  8.00090651081319 24.00001717322667 0  9 24 0  -9 26 0  -8.000455878502279 26.00006911849968 0  -7.000926390784617 26.00014149833127 0  -6.001426573620959 26.00022049751838 0  -5.001972231571171 26.00030967050228 0  -4.001999641152267 25.99979047482162 0  -3.001971447627796 25.99927083763446 0  -2.001115643497136 25.9993035864315 0  -1.000299759804304 25.99932347564284 0  0.0004982587254087667 25.99933105235947 0  1.00129996731069 25.99932648750587 0  2.002126978126347 25.99930957660276 0  3.003001511002227 25.9992797392008 0  4.003031121379881 25.99976666107645 0  5.002998102928487 26.00025350277564 0  6.002189343372413 26.0001792210638 0  7.001431770101334 26.00011438432826 0  8.000707631501115 26.00005568237277 0  9 26 0  -9 28 0  -8.000178699116706 28.0000891180835 0  -7.000364654090339 28.00018204278939 0  -6.000565334691635 28.00028267968917 0  -5.000788585358954 28.00039513356756 0  -4.000802409286616 27.99978342143493 0  -3.000788508378329 27.99917138229539 0  -2.000336287375613 27.99920938728564 0  -0.9999033686369034 27.99923205940364 0  0.0005220192676983078 27.99923997098746 0  1.0009514134514 27.99923330599213 0  2.001396407321679 27.99921186057106 0  3.001868942336905 27.99917504250405 0  4.001884209514498 27.99977056174317 0  5.001864129906203 28.00036593413866 0  6.001364790813429 28.00026120098622 0  7.000894221975027 28.00016792353594 
[...]
<PointData  Scalars="f_44-1"> 
<DataArray  type="Float64"  Name="f_44-1"  format="ascii">4.2671284745326472e-04  -1.1686556226071392e-05  1.8352604249279125e-05  -8.9328641407233583e-05  1.8627857676491633e-04  0.0000000000000000e+00  0.0000000000000000e+00  0.0000000000000000e+00  0.0000000000000000e+00  0.0000000000000000e+00  0.0000000000000000e+00  0.0000000000000000e+00  0.0000000000000000e+00  0.0000000000000000e+00  4.1352367117084466e-04  5.5062325287862949e-06  3.3590279739417538e-05  -9.0596136110000018e-05  2.0101570092267957e-04  3.3915293966709573e-02  3.3917037200863961e-02  3.3800866286889900e-02  3.3669251248854705e-02  3.3638507229594918e-02  0.0000000000000000e+00  0.0000000000000000e+00  0.0000000000000000e+00  0.0000000000000000e+00  0.0000000000000000e+00  0.0000000000000000e+00  0.0000000000000000e+00  0.0000000000000000e+00  0.0000000000000000e+00  3.3424941019866712e-02  3.3405052793759944e-02  3.3275262622936619e-02  3.3155646602616405e-02  3.3135627484381321e-02  6.7587047418084814e-02  6.7562208782990477e-02  6.7519277879401263e-02  6.7492073278330261e-02  6.7520424341387442e-02  0.0000000000000000e+00  0.0000000000000000e+00  0.0000000000000000e+00  0.0000000000000000e+00  0.0000000000000000e+00  0.0000000000000000e+00  0.0000000000000000e+00  0.0000000000000000e+00  0.0000000000000000e+00  6.6576594389523555e-02  6.6600667043713924e-02  6.6595430842056144e-02  6.6563325925681413e-02  6.6564272850168124e-02  1.0135191733364217e-01  1.0136949409815560e-01  1.0141501036579188e-01  1.0147035748550647e-01  1.0149725330837885e-01  0.0000000000000000e+00  0.0000000000000000e+00  0.0000000000000000e+00  0.0000000000000000e+00  0.0000000000000000e+00  0.0000000000000000e+00  0.0000000000000000e+00  0.0000000000000000e+00  0.0000000000000000e+00  9.9909335375217637e-02  9.9907753944775968e-02  9.9910336545854170e-02  9.9916101613328728e-02  9.9919248240909614e-02  1.3508206821506391e-01  1.3507759782583365e-01  1.3503702101699225e-01  1.3495287098836206e-01  1.3490527647822620e-01  0.0000000000000000e+00  0.0000000000000000e+00  0.0000000000000000e+00  0.0000000000000000e+00  0.0000000000000000e+00  0.0000000000000000e+00  0.0000000000000000e+00  0.0000000000000000e+00  0.0000000000000000e+00  1.3313183197155828e-01  1.3321433108814781e-01  1.3325550740073797e-01  1.3327055285773234e-01  1.3328054621881019e-01  1.6886346531993954e-01  1.6886899326568694e-01  1.6886633297161294e-01  1.6888790349525831e-01  1.6885686771345215e-01  0.0000000000000000e+00  5.3820953500226809e-01  5.3815353202997274e-01  5.3796188656760036e-01  5.3785989243837329e-01  5.3796651623929659e-01  5.3824289020453475e-01  5.3840929836946305e-01  0.0000000000000000e+00  1.6669377446824041e-01  1.6671087164197687e-01  1.6667948908624283e-01  1.6666197239375924e-01  1.6666295849318707e-01  2.0266132685973895e-01  2.0267707670818289e-01  2.0269733879622137e-01  2.0274075904476424e-01  2.0271761842948846e-01  0.0000000000000000e+00  5.3790778264497996e-01  5.3766664460321512e-01  5.3753589839880156e-01  5.3751366200567430e-01  5.3758805398750975e-01  5.3771170352479891e-01  5.3793172426528901e-01  0.0000000000000000e+00  2.0018162692840225e-01  2.0015969339971676e-01  2.0008851496168245e-01  2.0003725366727371e-01  2.0002385962032948e-01  2.3646044174893432e-01  2.3648375278028774e-01  2.3650722123149417e-01  2.3654105993083616e-01  2.3649915474167824e-01  0.0000000000000000e+00  5.3700695680320343e-01  5.3685806000514558e-01  5.3676955184535202e-01  5.3675867124624166e-01  5.3682774686486068e-01  5.3698207099012751e-01  5.3719746138844127e-01  0.0000000000000000e+00  2.3345303811917190e-01  2.3345878939798775e-01  2.3339636615467313e-01  2.3336142318104272e-01  2.3334032236822053e-01  2.7029875585537944e-01  2.7032278898157525e-01  2.7032236403273574e-01  2.7029841087220569e-01  2.7018318254787077e-01  0.0000000000000000e+00  5.3602408774153265e-01  5.3579248700197635e-01  5.3566923729893889e-01  5.3565095071936975e-01  5.3573481065586326e-01  5.3592297306902259e-01  5.3622688169404298e-01  0.0000000000000000e+00  2.6653177263039346e-01  2.6665227696181132e-01  2.6667905308997680e-01  2.6668484064729564e-01  2.6666784542218797e-01  3.0427236097406862e-01  3.0429090750681981e-01  3.0424959187231826e-01  3.0414255344228158e-01  3.0393227998616862e-01  0.0000000000000000e+00  5.3459902105883494e-01  5.3431631252518175e-01  5.3415999622168464e-01  5.3412852596995353e-01  5.3421956358874945e-01  5.3443521693808882e-01  5.3477886884712877e-01  0.0000000000000000e+00  2.9970730269538853e-01  2.9995079611424041e-01  3.0007965708832213e-01  3.0014107969203979e-01  3.0013112978526924e-01  3.3850669082706258e-01  3.3851583276705066e-01  3.3842971753344059e-01  3.3823895952199839e-01  3.3794289390456056e-01  0.0000000000000000e+00  5.3263154478008490e-01  5.3232333576726620e-01  5.3215307666565670e-01  5.3211647325578271e-01  5.3220948031068904e-01  5.3243510157042817e-01  5.3279877686653843e-01  0.0000000000000000e+00  3.3319436449459494e-01  3.3354625789362602e-01  3.3377326817978842e-01  3.3388924456978791e-01  3.3388892892237948e-01  3.7312156853961354e-01  3.7311957571613785e-01  3.7299480223344889e-01  3.7273690199385201e-01  3.7238297854918256e-01  0.0000000000000000e+00  5.3008215614752874e-01  5.2978365600025823e-01  5.2961907813263487e-01  5.2958254952770789e-01  5.2967103065394772e-01  5.2988806586458348e-01  5.3023855429453293e-01  0.0000000000000000e+00  3.6718590622624542e-01  3.6761368360684860e-01  3.6791888486396801e-01  3.6807947186495388e-01  3.6809077072327484e-01  4.0820453498031761e-01  4.0819155925713169e-01  4.0804106119028877e-01  4.0774361630881473e-01  4.0737023495494457e-01  0.0000000000000000e+00  5.2696650469266593e-01  5.2671308585781251e-01  5.2657524700447711e-01  5.2654632779043942e-01  5.2662448266197626e-01  5.2681305020868652e-01  5.2711579293873378e-01  0.0000000000000000e+00  4.0182155845987400e-01  4.0228186817845191e-01  4.0263425209887732e-01  4.0282340514778719e-01  4.0284638622102714e-01  4.4379422591693707e-01  4.4377193763247003e-01  4.4361253977235415e-01  4.4330888303704430e-01  4.4295833579376576e-01  0.0000000000000000e+00  5.2336687924930414e-01  5.2318911833444348e-01  5.2309610420219255e-01  5.2308105476325106e-01  5.2314357083430452e-01  5.2328644217925446e-01  5.2351194237926146e-01  0.0000000000000000e+00  4.3717016508612072e-01  4.3761585342967996e-01  4.3797896027126038e-01  4.3817713614031428e-01  4.3820998884671275e-01  4.7987274711227235e-01  4.7984393798844638e-01  4.7969378507948707e-01  4.7941831890631481e-01  4.7913103127613360e-01  0.0000000000000000e+00  5.1941814777459172e-01  5.1933800579993805e-01  5.1930267419360832e-01  5.1930602803711012e-01  5.1934913870559996e-01  5.1943395919473179e-01  5.1956093825366800e-01  0.0000000000000000e+00  4.7322464673158010e-01  4.7361041844118013e-01  4.7394682217985279e-01  4.7413358413678436e-01  4.7417318058759617e-01  5.1636600739044147e-01  5.1633429821104160e-01  5.1621063185263771e-01  5.1599476845137227e-01  5.1580456051141332e-01  0.0000000000000000e+00  5.1529161942530699e-01  5.1532021606344958e-01  5.1534893866767228e-01  5.1537307718748093e-01  5.1539499544140943e-01  5.1541563336451302e-01  5.1543347048194876e-01  0.0000000000000000e+00  5.0990399746458581e-01  5.1019124443340846e-01  5.1046664557755883e-01  5.1062292238100659e-01  5.1066537212666163e-01  5.5315172545421343e-01  5.5312081747716668e-01  5.5303789767540446e-01  5.5290654595494548e-01  5.5283687220185429e-01  0.0000000000000000e+00  5.1117535940821346e-01  5.1131211075501593e-01  5.1140432619243237e-01  5.1144933737855314e-01  5.1145049341044324e-01  5.1140763812404455e-01  5.1131734819490715e-01  0.0000000000000000e+00  5.4706275908977764e-01  5.4722345003046624e-01  5.4741011024066843e-01  5.4752011520033894e-01  5.4756125452459847e-01  5.9007060154841084e-01  5.9004459636105244e-01  5.9001244788633833e-01  5.8998166517643091e-01  5.9004311419179079e-01  0.0000000000000000e+00  5.0725376072125250e-01  5.0748674647713798e-01  5.0763527169037048e-01  5.0769908264511510e-01  5.0768213196093348e-01  5.0758314435579799e-01  5.0739712998134523e-01  0.0000000000000000e+00  5.8450693938713572e-01  5.8452615609916336e-01  5.8460553721938613e-01  5.8465835658552934e-01  5.8469418819925412e-01  6.2694841413633207e-01  6.2692954601026085e-01  6.2695230472794461e-01  6.2702708952096919e-01  6.2721588466047407e-01  0.0000000000000000e+00  5.0368853015988879e-01  5.0399595500026428e-01  5.0418795962040652e-01  5.0426668928439322e-01  5.0423626822119005e-01  5.0409439125820998e-01  5.0383509929221615e-01  0.0000000000000000e+00  6.2201377322359086e-01  6.2189137297944097e-01  6.2185631749872006e-01  6.2184685361974767e-01  6.2187392648890749e-01  6.6360461419458716e-01  6.6359773416776691e-01  6.6367485224643175e-01  6.6384800141474065e-01  6.6414504440851863e-01  0.0000000000000000e+00  5.0060258302947980e-01  5.0095538421213270e-01  5.0117388867713808e-01  5.0126231992908266e-01  5.0122461024519982e-01  5.0105759001412487e-01  5.0075516495600914e-01  0.0000000000000000e+00  6.5935516112066861e-01  6.5910715072067538e-01  6.5896132730789614e-01  6.5889092748518885e-01  6.5890670277619234e-01  6.9989578483167314e-01  6.9989679686133544e-01  7.0001532022884649e-01  7.0026798700439330e-01  7.0064550667048198e-01  0.0000000000000000e+00  4.9806861811358016e-01  4.9843340541773407e-01  4.9865933531654227e-01  4.9875189770715772e-01  4.9871420312298970e-01  4.9854225765968507e-01  4.9823104075029795e-01  0.0000000000000000e+00  6.9632961408428462e-01  6.9597555385384080e-01  6.9573610402262387e-01  6.9561294934222540e-01  6.9561619117760098e-01  7.3568734023555360e-01  7.3570134817598010e-01  7.3585997598423958e-01  7.3617481350653713e-01  7.3659303676116017e-01  0.0000000000000000e+00  4.9610110316755429e-01  4.9644587260822487e-01  4.9666158025852714e-01  4.9675212350718612e-01  4.9671956541798096e-01  4.9656154400390845e-01  4.9627574486110104e-01  0.0000000000000000e+00  7.3273389263982425e-01  7.3234057293843935e-01  7.3203438467833037e-01  7.3187079406962907e-01  7.3186111252191766e-01  7.7094392161433833e-01  7.7097255142376397e-01  7.7113796057355233e-01  7.7144113260004510e-01  7.7182773374967817e-01  0.0000000000000000e+00  4.9465509751316383e-01  4.9496063253351280e-01  4.9514926171233692e-01  4.9523274629121455e-01  4.9521318684814408e-01  4.9508754692811974e-01  4.9485228023576089e-01  0.0000000000000000e+00  7.6857672024699308e-01  7.6810770516006299e-01  7.6775584978384481e-01  7.6757078362471798e-01  7.6755089444323288e-01  8.0563786863484421e-01  8.0565273638306523e-01  8.0581105652284313e-01  8.0614685178114198e-01  8.0656097459722476e-01  0.0000000000000000e+00  4.9368218776411055e-01  4.9389985837967210e-01  4.9405504907284808e-01  4.9412404097831525e-01  4.9411208339303636e-01  4.9402086929115113e-01  4.9386830838337192e-01  0.0000000000000000e+00  8.0352570691120562e-01  8.0318001967199870e-01  8.0286342855036152e-01  8.0268238555410287e-01  8.0265342712382903e-01  8.3976276792151017e-01  8.3981946954392317e-01  8.3999693977127321e-01  8.4029657241266120e-01  8.4060311613165528e-01  0.0000000000000000e+00  4.9294748899017282e-01  4.9317021000454470e-01  4.9329413715405945e-01  4.9336818433904261e-01  4.9334513184706635e-01  4.9321336576991653e-01  4.9297134879930310e-01  0.0000000000000000e+00  8.3811298332161221e-01  8.3771253604720297e-01  8.3739737368592582e-01  8.3723993868572677e-01  8.3721748848071831e-01  8.7365621267334725e-01  8.7364095743103520e-01  8.7371656230587202e-01  8.7381799317796183e-01  8.7398419092899216e-01  0.0000000000000000e+00  4.9248152834662923e-01  4.9264176004219667e-01  4.9291572230515712e-01  4.9302171321315003e-01  4.9292030505345830e-01  4.9273107946249994e-01  4.9267391589154702e-01  0.0000000000000000e+00  8.7180239323229736e-01  8.7160446026745997e-01  8.7146008200408853e-01  8.7136103166389645e-01  8.7132060824668101e-01  9.0684006587666044e-01  9.0689512860217281e-01  9.0695887066443548e-01  9.0707890551353798e-01  9.0721412987545180e-01  0.0000000000000000e+00  0.0000000000000000e+00  0.0000000000000000e+00  0.0000000000000000e+00  0.0000000000000000e+00  0.0000000000000000e+00  0.0000000000000000e+00  0.0000000000000000e+00  0.0000000000000000e+00  9.0504713882500787e-01  9.0508762626093298e-01  9.0509026496584355e-01  9.0512433733162478e-01  9.0516874028292049e-01  9.4069844219896470e-01  9.4070992377172369e-01  9.4073785888819905e-01  9.4071889326429292e-01  9.4071475666601634e-01  0.0000000000000000e+00  0.0000000000000000e+00  0.0000000000000000e+00  0.0000000000000000e+00  0.0000000000000000e+00  0.0000000000000000e+00  0.0000000000000000e+00  0.0000000000000000e+00  0.0000000000000000e+00  9.3929364406027316e-01  9.3929757135664005e-01  9.3930985667866762e-01  9.3927036969990430e-01  9.3924079771084357e-01  9.7336641124952983e-01  9.7324748890119184e-01  9.7323680366005838e-01  9.7333851836702723e-01  9.7324317670349825e-01  0.0000000000000000e+00  0.0000000000000000e+00  0.0000000000000000e+00  0.0000000000000000e+00  0.0000000000000000e+00  0.0000000000000000e+00  0.0000000000000000e+00  0.0000000000000000e+00  0.0000000000000000e+00  9.7238691965896351e-01  9.7229114353620361e-01  9.7228675295019662e-01  9.7239028397413418e-01  9.7229790453654108e-01  1.0061831946794364e+00  1.0069894780348114e+00  1.0076515296526392e+00  1.0079876048608651e+00  1.0086065394080188e+00  0.0000000000000000e+00  0.0000000000000000e+00  0.0000000000000000e+00  0.0000000000000000e+00  0.0000000000000000e+00  0.0000000000000000e+00  0.0000000000000000e+00  0.0000000000000000e+00  0.0000000000000000e+00  1.0057587632163867e+00  1.0065363995287162e+00  1.0071741415187152e+00  1.0074910861850261e+00  1.0080889185596722e+00  1.0422946990864514e+00  1.0408516222547124e+00  1.0398982207497125e+00  1.0404350561471007e+00  1.0397373458146519e+00  0.0000000000000000e+00  0.0000000000000000e+00  0.0000000000000000e+00  0.0000000000000000e+00  0.0000000000000000e+00  0.0000000000000000e+00  0.0000000000000000e+00  0.0000000000000000e+00  0.0000000000000000e+00  1.0423257844785179e+00  1.0408509240905226e+00  1.0399004007993988e+00  1.0404354865820846e+00  1.0397270662186955e+00  </DataArray> 
</PointData> 
</Piece>
</UnstructuredGrid>
</VTKFile>