<?xml version="1.0"?>
<VTKFile type="UnstructuredGrid"  version="0.1"  >
<UnstructuredGrid>
<Piece  NumberOfPoints="589" NumberOfCells="1080">
<Points>
<DataArray  type="Float64"  NumberOfComponents="3"  format="ascii">-9 0 0  -8 0 0  -7 0 0  -6 0 0  -5 0 0  -4 0 0  -3 0 0  -2 0 0  -1 0 0  0 0 0  1 0 0  2 0 0  3 0 0  4 0 0  5 0 0  6 0 0  7 0 0  8 0 0  9 0 0  -9 2 0  -8.000006887851633 1.999989146493604 0  -7.000014464948618 1.999979673233524 0  -6.000024385328113 1.999972706305839 0  -5.000040456830471 1.999968755726525 0  -4.00002345716002 1.999976495145305 0  -3.00000600676111 1.999984073959459 0  -1.999997602865546 1.999991286713942 0  -0.9999964331816058 1.999996984461052 0  2.314659942431654e-07 1.999999449689599 0  0.999996627352117 1.999997615312589 0  1.999996890508504 1.999991886232715 0  3.000003816326732 1.999984849648131 0  4.00001831690015 1.999977247854892 0  5.000039468980902 1.999973885807008 0  6.000023991220224 1.999975071469818 0  7.000014349259414 1.999980808866446 0  8.000006874269669 1.999989621365925 0  9 2 0  -9.000000000004983 4 0  -8.00001101858361 3.999972772684001 0  -7.000019556823195 3.999949321640726 0  -6.000024166100368 3.999933347494522 0  -5.000025156683138 3.999928380750764 0  -4.000000059140102 3.999931927643153 0  -2.999983299611244 3.999953598997179 0  -1.999979141373795 3.999981893463054 0  -0.9999859206600235 4.000004663966496 0  1.364282783084866e-06 4.00001374536329 0  0.9999884251405038 4.000006269274365 0  1.999980904060022 3.999986393089712 0  2.999984467516872 3.999959478761926 0  4.000000868638556 3.999932240386353 0  5.000025988361137 3.999922560632479 0  6.000024639070737 3.999931936515753 0  7.000020030418727 3.999949318129848 0  8.000011345331885 3.999972979026082 0  9 4 0  -9 6 0  -8.000025069825387 5.99994129722029 0  -7.000040364481824 5.99988906565649 0  -6.000038421595982 5.999849962191257 0  -5.000017088650728 5.999830382328841 0  -3.999967629766369 5.999862515402079 0  -2.99994520887432 5.999930026002766 0  -1.999954242821651 6.000000885922555 0  -0.9999766556830827 6.000040335897753 0  5.64313180907048e-07 6.000048143876944 0  0.9999799737108074 6.000035053390008 0  1.999964210784667 5.999999007915734 0  2.999958273439399 5.999938101830302 0  3.999970144573266 5.999874778191399 0  5.000012993706251 5.999842936782173 0  6.000038324321166 5.999856781722828 0  7.000042016303208 5.999892713825567 0  8.000026455894828 5.999942899765321 0  9 6 0  -9 8 0  -8.000078210497326 7.999883953222517 0  -7.000130116131988 7.999776314570038 0  -6.000130233491643 7.999688499678587 0  -5.000056724780448 7.999639315427352 0  -3.999960792594354 7.999788530717126 0  -2.999978163710133 7.99996405527211 0  -2.000013968590673 8.000049853151038 0  -1.000017055225407 8.000059948831613 0  4.226085271443281e-06 8.000062952181414 0  1.000019925793511 8.000071672103902 0  2.000012826836481 8.00003507071308 0  2.999970246202484 7.999972880106986 0  3.99995561128057 7.999819182260614 0  5.000051036308663 7.999645742284186 0  6.000138551494165 7.999693302757928 0  7.000140997088685 7.999779112976295 0  8.000085135759628 7.999885177574314 0  9 8 0  -9 10 0  -8.000236489665461 9.999793041976229 0  -7.000426950670653 9.999584369603363 0  -6.000516465828241 9.99937268169001 0  -5.000428525384311 9.999157660625011 0  -4.000276494135691 9.999639428292289 0  -3.000300793808571 10.00005386352033 0  -2.000238999575806 9.999983415014398 0  -1.000105523203652 9.99996080231417 0  -6.866768078793749e-06 9.999955262099737 0  1.000091282318783 9.999955573380394 0  2.000222475635372 9.999952514601727 0  3.000337212469105 10.00010377582994 0  4.000321840687229 9.999702525152506 0  5.000497845736589 9.999173056836737 0  6.000578877692413 9.999376963726878 0  7.000473091951168 9.999584572346579 0  8.00026083880565 9.999792473386778 0  9 10 0  -9 12 0  -8.000578508357307 11.99970912741973 0  -7.001126955320361 11.99940472192099 0  -6.00161133430806 11.99907060610177 0  -5.001989396560982 11.99868423839852 0  -4.001911540375827 11.99956233811803 0  -3.00198099967356 12.00043153335305 0  -2.00134808263714 12.00032834935825 0  -1.000645641708768 12.00027352948739 0  8.259070588448349e-05 12.00026477747635 0  1.000816858421643 12.00030408992007 0  2.001540132564875 12.00040234300053 0  3.002218620203232 12.00058657082763 0  4.002141301771443 11.99962130581648 0  5.002193251396644 11.99864789241394 0  6.001765585265374 11.99904613982161 0  7.001230610799683 11.99938905969664 0  8.000630611618677 11.99970138940818 0  9 12 0  -9 14 0  -8.001039999009414 13.99967950193273 0  -7.00208199219706 13.99934418811551 0  -6.003129347343713 13.99897793648379 0  -5.00418895416939 13.99856206119265 0  -4.004199862315001 13.99958748645303 0  -3.004205378192042 14.00062575393812 0  -2.002736724571682 14.00048011772686 0  -1.001289546778264 14.00040224296319 0  0.0001481341627607807 14.0003822757568 0  1.001587613144131 14.00041714419029 0  2.0030391843189 14.00050870617566 0  3.004510635761284 14.00066188367022 0  4.004520748097717 13.99958345115047 0  5.00452887947689 13.9985114424189 0  6.003379569659948 13.9989372674117 0  7.002247081048108 13.99931629201649 0  8.001122117599746 13.99966539287662 0  9 14 0  -9 16 0  -8.001492458515951 15.9997092441818 0  -7.003013842199698 15.99940762782273 0  -6.004595551208945 15.99908409646092 0  -5.006274030910499 15.99872737920756 0  -4.006334166571521 15.99959978309347 0  -3.006276601919972 16.00046741864263 0  -2.004042218385035 16.00036170170009 0  -1.001896648562311 16.00030002255878 0  0.0002065782595806097 16.0002810636075 0  1.002311353338912 16.0003040502443 0  2.004461528163727 16.00036923484495 0  3.006703706895534 16.00047767450523 0  4.006767093010756 15.99955541278574 0  5.006711953943658 15.99863232120783 0  6.004922949543385 15.99901604021533 0  7.003231434671979 15.99936352963049 0  8.001601034225819 15.99968753532598 0  9 16 0  -9 18 0  -8.001828103281779 17.99978245635304 0  -7.00370239664949 17.99955883954697 0  -6.005671459203142 17.99932318050416 0  -5.007788623875158 17.99906974140927 0  -4.007879621457549 17.99960211315783 0  -3.007791135646016 18.0001336427409 0  -2.004996007360138 18.00006785322496 0  -1.002336019278511 18.00002766525582 0  0.0002588089605010672 18.00001280610537 0  1.002855073238895 18.00002288747256 0  2.005519277207296 18.00005743861633 0  3.008321089473574 18.00011577673618 0  4.008414406707646 17.99953440842378 0  5.008325793235166 17.99895454806005 0  6.006072560959906 17.99924002029448 0  7.003968931738015 17.99950488036383 0  8.001961110353975 17.99975590826653 0  9 18 0  -9 20 0  -8.001977957322984 19.99987994491361 0  -7.004009828444318 19.99975824959593 0  -6.006151586574418 19.99963344989394 0  -5.008463324863222 19.99950442693651 0  -4.00856727266644 19.99960153109975 0  -3.008463856568576 19.99969769950266 0  -2.005413266373506 19.99967213103228 0  -1.002516646955898 19.9996545393994 0  0.0003052524838538915 19.99964533627224 0  1.003128828233055 19.99964437925108 0  2.006030463947213 19.99965099148927 0  3.009089386216329 19.99966391228924 0  4.00919527890627 19.99952391089374 0  5.009091075280581 19.99938490183822 0  6.006619824928265 19.99954653450918 0  7.004320768273191 19.99970160230168 0  8.002133063553512 19.99985200953809 0  8.999999999981688 19.99999999999437 0  -9 22 0  -8.001911197823192 21.99998397703244 0  -7.003875667757375 21.99997007687551 0  -6.005948364976341 21.99996062294199 0  -5.008187595307954 21.99995834469648 0  -4.008289386746042 21.99959679425831 0  -3.00818768512802 21.99923420025218 0  -2.0052187524613 21.99924468250804 0  -1.002400319647922 21.99924805775048 0  0.0003450110226020477 21.99924508144462 0  1.003092308470802 21.99923578029763 0  2.005916654031194 21.9992194660658 0  3.008895486395686 21.99919472192689 0  4.008997965330432 21.99952054204082 0  5.008893421918613 21.99984685901356 0  6.00647452496253 21.99987929825842 0  7.004224915046271 21.99991694450016 0  8.002085361365609 21.99995773590475 0  9 22 0  -9 24 0  -8.001630354086206 24.00007952220102 0  -7.003306492777357 24.00016412407508 0  -6.00507550671673 24.00025909387415 0  -5.006987013566479 24.00037015216552 0  -4.007074668554273 23.99958808621604 0  -3.006987820911327 23.99880505311667 0  -2.004426250207095 23.99884550411501 0  -1.001993428197008 23.9988668344705 0  0.0003770121157915285 23.99886997787858 0  1.002749672134708 23.99885507575635 0  2.005189177393716 23.99882148105944 0  3.007761969818961 23.99876775266478 0  4.007848199746276 23.99952244223832 0  5.00775592217648 24.0002773406214 0  6.00564844782654 24.00019120521416 0  7.003686674747864 24.00011968318707 0  8.001819906565252 24.00005754752632 0  9 24 0  -9 26 0  -8.001165223314654 26.00015477288506 0  -7.002363557977814 26.00031671733355 0  -6.003629042394735 26.00049321871828 0  -5.004997383843289 26.00069210630599 0  -4.005061733951451 25.99957592644585 0  -3.004999675158975 25.99845896012079 0  -2.0031226315867 25.99852244231387 0  -1.001338766305593 25.99855799557909 0  0.0004003044918511135 25.99856668985455 0  1.002141769756332 25.99854876665479 0  2.003932845961347 25.99850364104767 0  3.005821998986225 25.99842989820146 0  4.00588241267987 25.99952786794706 0  5.005812069586071 26.00062583272051 0  6.004235976699754 26.00044465055812 0  7.002766241067003 26.00028487911602 0  8.001365977592396 26.00013901560196 0  9 26 0  -9 28 0  -8.000566307829532 28.000201364137 0  -7.001149590418065 28.00041110305418 0  -6.001767349016454 28.00063781006737 0  -5.00243788330386 28.00089052233919 0  -4.002472636830913 27.99956140388591 0  -3.002441900118381 27.99823180542893 0  -2.001450107905991 27.99831070857165 0  -1.000506650239914 27.99835620155451 0  0.0004141883329060048 27.99836947385312 0  1.001337505480913 27.99835086245452 0  2.002288423888964 27.99829985254447 0  3.00329273421869 27.99821507586771 0  4.003321173934505 27.9995355888737 0  5.003279596540223 28.00085600776584 0  6.002394399548056 28.00061247012584 0  7.001565613364551 28.00039446891631 0  8.000
[...]
<PointData  Scalars="f_44-1"> 
<DataArray  type="Float64"  Name="f_44-1"  format="ascii">1.2400768688394668e-03  -3.2274725895924767e-06  4.3094711323350812e-05  -3.2537411024610456e-06  -8.7988471175889666e-04  0.0000000000000000e+00  0.0000000000000000e+00  0.0000000000000000e+00  0.0000000000000000e+00  0.0000000000000000e+00  0.0000000000000000e+00  0.0000000000000000e+00  0.0000000000000000e+00  0.0000000000000000e+00  1.2408498519690450e-03  1.5347992320590914e-06  4.7368257807942459e-05  -1.0360679448228482e-05  -8.8307882099312887e-04  7.8452147071506786e-02  7.8462967097333469e-02  7.8277619577960547e-02  7.8012075369861114e-02  7.7900198617346275e-02  0.0000000000000000e+00  0.0000000000000000e+00  0.0000000000000000e+00  0.0000000000000000e+00  0.0000000000000000e+00  0.0000000000000000e+00  0.0000000000000000e+00  0.0000000000000000e+00  0.0000000000000000e+00  7.8230252350027576e-02  7.8229216740150043e-02  7.8033793523601000e-02  7.7769086589336012e-02  7.7656057850207738e-02  1.5652473061093738e-01  1.5650149372714686e-01  1.5645445654852161e-01  1.5641355715531297e-01  1.5643629222071040e-01  0.0000000000000000e+00  0.0000000000000000e+00  0.0000000000000000e+00  0.0000000000000000e+00  0.0000000000000000e+00  0.0000000000000000e+00  0.0000000000000000e+00  0.0000000000000000e+00  0.0000000000000000e+00  1.5603464847694665e-01  1.5604554576606217e-01  1.5602464767072047e-01  1.5598400367260645e-01  1.5599141713515066e-01  2.3472797676849538e-01  2.3473483685767357e-01  2.3475686362737150e-01  2.3478593438283732e-01  2.3478977815228982e-01  0.0000000000000000e+00  0.0000000000000000e+00  0.0000000000000000e+00  0.0000000000000000e+00  0.0000000000000000e+00  0.0000000000000000e+00  0.0000000000000000e+00  0.0000000000000000e+00  0.0000000000000000e+00  2.3404335254629460e-01  2.3403786890662226e-01  2.3404662739327489e-01  2.3405623264657818e-01  2.3406454734084214e-01  3.1296093063547004e-01  3.1294691907764788e-01  3.1288407481721492e-01  3.1275019885266625e-01  3.1266784335847664e-01  0.0000000000000000e+00  0.0000000000000000e+00  0.0000000000000000e+00  0.0000000000000000e+00  0.0000000000000000e+00  0.0000000000000000e+00  0.0000000000000000e+00  0.0000000000000000e+00  0.0000000000000000e+00  3.1196456348924262e-01  3.1206090922431257e-01  3.1210545762625330e-01  3.1212991357526620e-01  3.1214414675218877e-01  3.9130700438609284e-01  3.9129632271085579e-01  3.9125854820340156e-01  3.9124090325938149e-01  3.9121189489004904e-01  0.0000000000000000e+00  1.2440283104887844e+00  1.2438956875262521e+00  1.2438384873903872e+00  1.2437642611279578e+00  1.2438518891533277e+00  1.2439896850723069e+00  1.2435728838568603e+00  0.0000000000000000e+00  3.9016541932849519e-01  3.9021084879966572e-01  3.9023035980118387e-01  3.9025856371607576e-01  3.9027436641131252e-01  4.6976686974969156e-01  4.6974968947186813e-01  4.6967922129515144e-01  4.6957456708999451e-01  4.6935217974051247e-01  0.0000000000000000e+00  1.2439266719039317e+00  1.2436998158080328e+00  1.2435646064392709e+00  1.2435169349216617e+00  1.2435863902513715e+00  1.2437158316339700e+00  1.2440729549149498e+00  0.0000000000000000e+00  4.6813173700218125e-01  4.6829207094141856e-01  4.6841138104797742e-01  4.6847414103677021e-01  4.6849672552105320e-01  5.4845523170872224e-01  5.4842722674431466e-01  5.4829770068352135e-01  5.4807579287819852e-01  5.4770451997358649e-01  0.0000000000000000e+00  1.2435491160388206e+00  1.2431529899698697e+00  1.2429003440441380e+00  1.2428272236911666e+00  1.2429178895849744e+00  1.2431718969345738e+00  1.2435739720277270e+00  0.0000000000000000e+00  5.4614872919360757e-01  5.4652543849166568e-01  5.4676028758840800e-01  5.4690180064324634e-01  5.4693861862982740e-01  6.2756474939802664e-01  6.2752362536544626e-01  6.2732257337217323e-01  6.2696218364208978e-01  6.2639459211845983e-01  0.0000000000000000e+00  1.2424908884848933e+00  1.2419158210353203e+00  1.2415789236272352e+00  1.2414762464403259e+00  1.2416018308385355e+00  1.2419579708597916e+00  1.2425716246480474e+00  0.0000000000000000e+00  6.2453550189832974e-01  6.2514053138460379e-01  6.2553897355800891e-01  6.2576256547796194e-01  6.2581485883135146e-01  7.0731456280446248e-01  7.0726192322371972e-01  7.0699833620249009e-01  7.0651980416540894e-01  7.0579549827287857e-01  0.0000000000000000e+00  1.2404781980316415e+00  1.2397598828031691e+00  1.2393383884856641e+00  1.2392068750963334e+00  1.2393604151371058e+00  1.2398018896289960e+00  1.2405509102053804e+00  0.0000000000000000e+00  7.0373391004312202e-01  7.0450061525529240e-01  7.0501555829239426e-01  7.0530369306814522e-01  7.0536740474640180e-01  7.8788977871424448e-01  7.8783038849436915e-01  7.8752896857694177e-01  7.8698034103546832e-01  7.8617379623673256e-01  0.0000000000000000e+00  1.2372034397665759e+00  1.2364160873369652e+00  1.2359586843621182e+00  1.2358165139712038e+00  1.2359839736056220e+00  1.2364659451818314e+00  1.2372799656615987e+00  0.0000000000000000e+00  7.8396685574938030e-01  7.8482024233036707e-01  7.8540082304700554e-01  7.8572404400478579e-01  7.8579321928749213e-01  8.6939692006240854e-01  8.6933713072296603e-01  8.6903035493024383e-01  8.6847223456602363e-01  8.6767225543280657e-01  0.0000000000000000e+00  1.2325566304291669e+00  1.2317865659390672e+00  1.2313424455678965e+00  1.2312047005024962e+00  1.2313693304506743e+00  1.2318423542981642e+00  1.2326365346943919e+00  0.0000000000000000e+00  8.6537795452825850e-01  8.6622563162219524e-01  8.6680944721393471e-01  8.6713348572949500e-01  8.6720178965240680e-01  9.5184141661290400e-01  9.5178790265959168e-01  9.5150995261541482e-01  9.5100518067975459e-01  9.5030157007474902e-01  0.0000000000000000e+00  1.2265653659838074e+00  1.2258986049088836e+00  1.2255177444742391e+00  1.2254011092706238e+00  1.2255464898543882e+00  1.2259601204379207e+00  1.2266484728348532e+00  0.0000000000000000e+00  9.4797382771028460e-01  9.4872329778824094e-01  9.4924634065762525e-01  9.4953604279993353e-01  9.4959678403361458e-01  1.0351234190619467e+00  1.0350821922409932e+00  1.0348641487597439e+00  1.0344694638740779e+00  1.0339414100387794e+00  0.0000000000000000e+00  1.2194088680566855e+00  1.2189202361118843e+00  1.2186459007041703e+00  1.2185646034429300e+00  1.2186761293076680e+00  1.2189862872517465e+00  1.2194946351226288e+00  0.0000000000000000e+00  1.0316273088801076e+00  1.0321975943582458e+00  1.0326031906671727e+00  1.0328273068517224e+00  1.0328744936541192e+00  1.1190485423392700e+00  1.1190241772198728e+00  1.1188902392756339e+00  1.1186496168924589e+00  1.1183564609344363e+00  0.0000000000000000e+00  1.2113950819197619e+00  1.2111394157440307e+00  1.2110029721290836e+00  1.2109672755629490e+00  1.2110340921645715e+00  1.2112082434232081e+00  1.2114823373807879e+00  0.0000000000000000e+00  1.1160956214296900e+00  1.1164261737306460e+00  1.1166711370646343e+00  1.1168059791028884e+00  1.1168351730763733e+00  1.2033500402255504e+00  1.2033451666296897e+00  1.2033100086436310e+00  1.2032499973885786e+00  1.2032248740826146e+00  0.0000000000000000e+00  1.2029260009659561e+00  1.2029323135598140e+00  1.2029498719559921e+00  1.2029649795895785e+00  1.2029811564017334e+00  1.2030017990440112e+00  1.2030132348611307e+00  0.0000000000000000e+00  1.2010488630477867e+00  1.2011058546570816e+00  1.2011649996209555e+00  1.2011969093254513e+00  1.2012057491402373e+00  1.2877189912634057e+00  1.2877339918732897e+00  1.2878012545284838e+00  1.2879283543715787e+00  1.2881748515107250e+00  0.0000000000000000e+00  1.1944535857368543e+00  1.1947221578165246e+00  1.1948929434382087e+00  1.1949584469122243e+00  1.1949235969319025e+00  1.1947900574318324e+00  1.1945392002570658e+00  0.0000000000000000e+00  1.2861073033709718e+00  1.2858868544058877e+00  1.2857553731732159e+00  1.2856820134187605e+00  1.2856704404774431e+00  1.3718383606994193e+00  1.3718714723383403e+00  1.3720335594718178e+00  1.3723338164099359e+00  1.3728257221010902e+00  0.0000000000000000e+00  1.1864305558910346e+00  1.1869329983774983e+00  1.1872394412847587e+00  1.1873494317669380e+00  1.1872687680370713e+00  1.1869972258621166e+00  1.1865131360367120e+00  0.0000000000000000e+00  1.3708828769288837e+00  1.3704111564032571e+00  1.3701048805578833e+00  1.3699353167661370e+00  1.3699055177919981e+00  1.4554187912632524e+00  1.4554661185342834e+00  1.4557049368938637e+00  1.4561452214858226e+00  1.4568291513816634e+00  0.0000000000000000e+00  1.1792609219371639e+00  1.1799432093239122e+00  1.1803528862898787e+00  1.1804965532223961e+00  1.1803803202436212e+00  1.1800020647842244e+00  1.1793394795519645e+00  0.0000000000000000e+00  1.4550207578622365e+00  1.4543511764205417e+00  1.4539047232716327e+00  1.4536582800110851e+00  1.4536143824634762e+00  1.5382271224499660e+00  1.5382836477982464e+00  1.5385728171530548e+00  1.5391051018053494e+00  1.5399065103810292e+00  0.0000000000000000e+00  1.1732551080382050e+00  1.1740435082557272e+00  1.1745126208537060e+00  1.1746754762507998e+00  1.1745378604670937e+00  1.1740959364768133e+00  1.1733294127988920e+00  0.0000000000000000e+00  1.5382379388338572e+00  1.5374450728102877e+00  1.5369076225464711e+00  1.5366117238349750e+00  1.5365592666961660e+00  1.6201191817440592e+00  1.6201779088742778e+00  1.6204851626943040e+00  1.6210515014743183e+00  1.6218838554915556e+00  0.0000000000000000e+00  1.1685949491244847e+00  1.1694040365771718e+00  1.1698825400153177e+00  1.1700483216904451e+00  1.1699059639018841e+00  1.1694500330619242e+00  1.1686652390014247e+00  0.0000000000000000e+00  1.6203540732715753e+00  1.6195234607837550e+00  1.6189541713375997e+00  1.6186409717379664e+00  1.6185862127647612e+00  1.7010372020245157e+00  1.7010929126463403e+00  1.7013884227718046e+00  1.7019313580318327e+00  1.7027049319551666e+00  0.0000000000000000e+00  1.1653105011453206e+00  1.1660558959936376e+00  1.1664947324185158e+00  1.1666468295042782e+00  1.1665147970754643e+00  1.1660938423426206e+00  1.1653769033413333e+00  0.0000000000000000e+00  1.7013022984553723e+00  1.7005312437156390e+00  1.6999887830053741e+00  1.6996907713269758e+00  1.6996395720382904e+00  1.7810440981139533e+00  1.7810939207981895e+00  1.7813423312977579e+00  1.7817908407242879e+00  1.7824142275833441e+00  0.0000000000000000e+00  1.1632806624827605e+00  1.1638922059547081e+00  1.1642467201833819e+00  1.1643712110755280e+00  1.1642678088763974e+00  1.1639304134325954e+00  1.1633553228792519e+00  0.0000000000000000e+00  1.7811936939996988e+00  1.7805243270212650e+00  1.7800610654448432e+00  1.7798068380913379e+00  1.7797645216327529e+00  1.8602563259431337e+00  1.8602888720832054e+00  1.8604780728967840e+00  1.8608586335447044e+00  1.8613605290006789e+00  0.0000000000000000e+00  1.1622740184942562e+00  1.1626751531754573e+00  1.1629284954344625e+00  1.1630183876660944e+00  1.1629442473094727e+00  1.1626899545263372e+00  1.1622929534700603e+00  0.0000000000000000e+00  1.8600731582942109e+00  1.8596523031723866e+00  1.8593148735656675e+00  1.8591264771496190e+00  1.8590949626814293e+00  1.9388704156686674e+00  1.9389013990017223e+00  1.9390421868788790e+00  1.9392788851044271e+00  1.9395068719175581e+00  0.0000000000000000e+00  1.1617742345109849e+00  1.1621322475366944e+00  1.1622613376811177e+00  1.1623301515763136e+00  1.1622817764831768e+00  1.1621458635345265e+00  1.1619179046885881e+00  0.0000000000000000e+00  1.9385582135744244e+00  1.9381924341375021e+00  1.9379675387145903e+00  1.9378468400692113e+00  1.9378301250856549e+00  2.0171302750870552e+00  2.0171289501202021e+00  2.0171783161600194e+00  2.0172202920982225e+00  2.0173127568868319e+00  0.0000000000000000e+00  1.1622813900884594e+00  1.1618614153206828e+00  1.1619979503800459e+00  1.1620847125969656e+00  1.1620109102917047e+00  1.1619546271076657e+00  1.1618221002705369e+00  0.0000000000000000e+00  2.0162551168286549e+00  2.0162680988942849e+00  2.0162337883242736e+00  2.0162041215251016e+00  2.0161932859519682e+00  2.0951073789644115e+00  2.0951427209579085e+00  2.0951538719935652e+00  2.0951821533109585e+00  2.0952529112621381e+00  0.0000000000000000e+00  0.0000000000000000e+00  0.0000000000000000e+00  0.0000000000000000e+00  0.0000000000000000e+00  0.0000000000000000e+00  0.0000000000000000e+00  0.0000000000000000e+00  0.0000000000000000e+00  2.0943308572754455e+00  2.0943739794550669e+00  2.0943839675851357e+00  2.0943993638046461e+00  2.0944311235817730e+00  2.1733583325019192e+00  2.1733287724774755e+00  2.1733400418003472e+00  2.1733590678343107e+00  2.1733240562546783e+00  0.0000000000000000e+00  0.0000000000000000e+00  0.0000000000000000e+00  0.0000000000000000e+00  0.0000000000000000e+00  0.0000000000000000e+00  0.0000000000000000e+00  0.0000000000000000e+00  0.0000000000000000e+00  2.1728065324314789e+00  2.1727669685821791e+00  2.1727827725313245e+00  2.1728076710002187e+00  2.1727818712644713e+00  2.2509492371229536e+00  2.2508873099175908e+00  2.2509136627032054e+00  2.2508720767615569e+00  2.2507903078054938e+00  0.0000000000000000e+00  0.0000000000000000e+00  0.0000000000000000e+00  0.0000000000000000e+00  0.0000000000000000e+00  0.0000000000000000e+00  0.0000000000000000e+00  0.0000000000000000e+00  0.0000000000000000e+00  2.2505790789779838e+00  2.2505294960328963e+00  2.2505577774641674e+00  2.2505213672409985e+00  2.2504493279006215e+00  2.3285735137346757e+00  2.3293411354938907e+00  2.3297610761658825e+00  2.3301420522324343e+00  2.3308362252513639e+00  0.0000000000000000e+00  0.0000000000000000e+00  0.0000000000000000e+00  0.0000000000000000e+00  0.0000000000000000e+00  0.0000000000000000e+00  0.0000000000000000e+00  0.0000000000000000e+00  0.0000000000000000e+00  2.3284615877398331e+00  2.3291883352430758e+00  2.3295841042475196e+00  2.3299435528170802e+00  2.3306103601277477e+00  2.4108682097930041e+00  2.4073532843256515e+00  2.4065829744729070e+00  2.4072147275125544e+00  2.4052654386255798e+00  0.0000000000000000e+00  0.0000000000000000e+00  0.0000000000000000e+00  0.0000000000000000e+00  0.0000000000000000e+00  0.0000000000000000e+00  0.0000000000000000e+00  0.0000000000000000e+00  0.0000000000000000e+00  2.4108524967383818e+00  2.4073584335530360e+00  2.4065876555712471e+00  2.4072148457756950e+00  2.4052808432550612e+00  </DataArray> 
</PointData> 
</Piece>
</UnstructuredGrid>
</VTKFile>