<?xml version="1.0"?>
<VTKFile type="UnstructuredGrid"  version="0.1"  >
<UnstructuredGrid>
<Piece  NumberOfPoints="589" NumberOfCells="1080">
<Points>
<DataArray  type="Float64"  NumberOfComponents="3"  format="ascii">-9 0 0  -8 0 0  -7 0 0  -6 0 0  -5 0 0  -4 0 0  -3 0 0  -2 0 0  -1 0 0  0 0 0  1 0 0  2 0 0  3 0 0  4 0 0  5 0 0  6 0 0  7 0 0  8 0 0  9 0 0  -9 2 0  -8.000007926097474 1.999988271099466 0  -7.000016636566844 1.999977964388333 0  -6.000027949521557 1.999970231836079 0  -5.000045999287836 1.999965569733201 0  -4.000027520375471 1.999974342037358 0  -3.000008459789597 1.999982535097603 0  -1.999999070648351 1.999990169288423 0  -0.9999973088701613 1.999996199389698 0  -3.096246651546898e-07 1.999998847033608 0  0.9999963425307231 1.999997032903943 0  1.999996931925979 1.999991197799122 0  3.000004341988068 1.999984033524459 0  4.000019473564597 1.999976357906048 0  5.00004133127957 1.999973213728642 0  6.000024941842659 1.999974391955139 0  7.000014823901965 1.99998027186074 0  8.00000707337837 1.999989327516097 0  9 2 0  -9 4 0  -8.000012714518462 3.999970854222153 0  -7.000022863220417 3.999945632724923 0  -6.000028951694273 3.99992818219098 0  -5.00003130078077 3.999922176956704 0  -4.000004536467401 3.999926221484038 0  -2.999986475799681 3.999949105568638 0  -1.999981529177354 3.999978885899198 0  -0.9999879634813742 4.000002829479112 0  -6.033604435752808e-07 4.000012495751808 0  0.9999864771784124 4.000005003573641 0  1.999979101632479 3.999984709470745 0  2.99998309238714 3.999957228668864 0  4.000000207774639 3.999929611756041 0  5.000026161165145 3.99992040502346 0  6.000024797497872 3.999929977707272 0  7.000020177916225 3.999947841558936 0  8.000011437842598 3.999972188585686 0  9 4 0  -9 6 0  -8.00002776524005 5.999937744011654 0  -7.000045330724969 5.999882220705268 0  -6.00004491145838 5.9998403546969 0  -5.000024270718228 5.999818792109163 0  -3.999972288614987 5.999852644295471 0  -2.999948503755225 5.999923342396853 0  -1.999957506605486 5.999997439770326 0  -0.9999803784914016 6.000038647960679 0  -3.525019150068983e-06 6.000046955354288 0  0.9999757112630828 6.000033629883535 0  1.999959980005503 5.999996761205221 0  2.999954268207607 5.999934490697468 0  3.999966753383328 5.999869940911647 0  5.00001108871642 5.999838037751728 0  6.000037676787024 5.999852402012124 0  7.000042012887945 5.999889482272756 0  8.000026591882822 5.99994119564578 0  9 6 0  -9 8 0  -8.000083604011389 7.99987772046529 0  -7.00013973067279 7.999764198190981 0  -6.000141753360509 7.999671331956014 0  -5.00006685229356 7.999618745205031 0  -3.999966608529483 7.999774886189133 0  -2.999984794347311 7.999958321949492 0  -2.000022103940732 8.000047741447069 0  -1.000025058885947 8.000057991112683 0  -2.473373204063887e-06 8.000060978101276 0  1.000014507828745 8.000069927390848 0  2.000007877386421 8.000032639957926 0  2.999964702287296 7.999969089313919 0  3.999950376363807 7.999811825990247 0  5.000048894842672 7.999634392582744 0  6.000139550718481 7.999683987993301 0  7.000142861054203 7.999772610194498 0  8.000086416346834 7.999881853662925 0  9 8 0  -9 10 0  -8.000249264739459 9.999782738393336 0  -7.000450452879792 9.999563660563807 0  -6.000546200890017 9.999341371217962 0  -5.000456572365185 9.99911547913818 0  -4.000297910291345 9.999619057444228 0  -3.00032339061848 10.0000520630208 0  -2.00025850954584 9.999977685456999 0  -1.000118787508251 9.999953815715822 0  -1.576736722176564e-05 9.999947992098162 0  1.000086419430255 9.999948425621051 0  2.000222291137986 9.999945662370855 0  3.000342230378051 10.00010101801699 0  4.000327742913986 9.999690529232099 0  5.000507856974119 9.999148979809776 0  6.00059061967332 9.999359611258701 0  7.000482611335164 9.99957333383353 0  8.000266050071582 9.999786951465653 0  9 10 0  -9 12 0  -8.000606827375554 11.99969517146435 0  -7.001182275401519 11.99937622235772 0  -6.001690878516099 11.99902626269389 0  -5.002088631206916 11.99862173863619 0  -4.002007850397861 11.99953902180002 0  -3.002080916354161 12.00044712205553 0  -2.001427824239357 12.00033716479608 0  -1.000702180992281 12.00027764728219 0  5.086293902478798e-05 12.00026600481471 0  1.000811317414683 12.00030411898244 0  2.001562358190911 12.00040306965991 0  3.002270421609478 12.000590608406 0  4.002192657991259 11.99960657424602 0  5.002244291314834 11.99861439422388 0  6.001803853196875 11.99902320211631 0  7.001256112903548 11.99937468137283 0  8.000643357067966 11.99969445222223 0  9 12 0  -9 14 0  -8.001089073535177 13.99966425642041 0  -7.002180142983783 13.99931311987157 0  -6.003276675252518 13.99892984026378 0  -5.004385885260398 13.99849500645239 0  -4.004397679395577 13.99956597214999 0  -3.004404024325392 14.00065051392205 0  -2.002888917768337 14.00049519898843 0  -1.001395865927619 14.00041025564039 0  8.805047581133143e-05 14.00038524576168 0  1.001575097361518 14.00041677951561 0  2.003076662757364 14.00050657607795 0  3.004601781148833 14.00065952215774 0  4.004613896903424 13.99956751938667 0  5.004620359134559 13.99848230921761 0  6.003444275838714 13.99891676842891 0  7.002288493920173 13.99930325767642 0  8.001142331259462 13.99965906167839 0  9 14 0  -9 16 0  -8.001562199563546 15.99969502583225 0  -7.003154287580155 15.99937882802216 0  -6.004808748403603 15.99903999311671 0  -5.006563351799637 15.99866690809154 0  -4.006626048009395 15.99957929686901 0  -3.006566931261487 16.0004868237927 0  -2.004264738138635 16.00037266115446 0  -1.002054298295515 16.00030386664827 0  0.0001127689601141208 16.00027897743224 0  1.00228217959656 16.000297043663 0  2.004499657748755 16.00035813829678 0  3.006813855965392 16.000463124636 0  4.006880204652233 15.99953877478029 0  5.006822176403873 15.99861372075382 0  6.005000082550293 15.99900266304898 0  7.003280330813256 15.99935488905301 0  8.001624746122694 15.99968329913722 0  9 16 0  -9 18 0  -8.00191457286882 17.99977071873444 0  -7.003876797121251 17.99953520254081 0  -6.005936803662554 17.99928733632256 0  -5.008149650723216 17.99902126824785 0  -4.008244018501038 17.99958215708699 0  -3.008153136017786 18.00014231621872 0  -2.00527731110484 18.00006940115276 0  -1.002541002379057 18.00002263312795 0  0.0001280499786618859 18.0000016553309 0  1.002798599705749 18.00000594512065 0  2.005539302296959 18.00003485236829 0  3.008422079304805 18.00008746277432 0  4.008518303859086 17.99951737821427 0  5.008426674233713 17.99894897631487 0  6.006142630838109 17.99923570910152 0  7.004013055965724 17.99950196032945 0  8.001982410246873 17.99975443754628 0  9 18 0  -9 20 0  -8.002075233028499 19.99987133219307 0  -7.004205985473473 19.99974100506124 0  -6.006449891659375 19.99960755015845 0  -5.008868813154157 19.99946987272388 0  -4.008976296962081 19.99958202301562 0  -3.008870220454822 19.99969335402409 0  -2.005736064241459 19.99966210103236 0  -1.002760695571204 19.99963880551449 0  0.0001372618374994114 19.99962382833777 0  1.003036242263303 19.99961692335298 0  2.006014644268542 19.99961725886731 0  3.009153748046867 19.99962336602551 0  4.009261956842968 19.99950676502283 0  5.00915519421944 19.99939129836484 0  6.00666331009948 19.9995507604505 0  7.004347605142949 19.99970416387879 0  8.002145843542909 19.99985321683276 0  8.999999999992394 19.9999999999934 0  -9 22 0  -8.002012792569406 21.99997856123318 0  -7.004080381303318 21.99995931288949 0  -6.00625927357274 21.99994465692086 0  -5.008609382238395 21.9999374223782 0  -4.008714498859714 21.9995776447737 0  -3.008610338355443 21.99921693931827 0  -2.005563964814629 21.99922315071375 0  -1.002672767648637 21.99922190201456 0  0.000142379372153989 21.99921391030931 0  1.002958215290742 21.99919912175931 0  2.005851460374203 21.99917672637513 0  3.008901187082948 21.99914514413351 0  4.009005101627316 21.99950336383717 0  5.008898732191828 21.99986220174081 0  6.006475439970013 21.99989003274771 0  7.004224075395836 21.99992374500182 0  8.002084508934072 21.99996103177733 0  9 22 0  -9 24 0  -8.001730116828854 24.00007702888114 0  -7.003507339099268 24.00015924944554 0  -6.00538009070167 24.00025206843088 0  -5.007399340345437 24.00036133717836 0  -4.00748993654057 23.99956924365956 0  -3.007401064117909 23.99877630105949 0  -2.004775329141145 23.99881387125603 0  -1.002282562118288 23.99883181082883 0  0.0001448429964717599 23.99883101843096 0  1.002572688419755 23.99881157418979 0  2.005066765434225 23.99877274317022 0  3.007694649373574 23.99871297013174 0  4.007781367623168 23.9995052261248 0  5.007688086417982 24.00029780672478 0  6.005596185573856 24.00020575194315 0  7.003651167017052 24.0001290061535 0  8.001801951900173 24.00006209799721 0  9 24 0  -9 26 0  -8.001257819862117 26.00015475095733 0  -7.002549817065021 26.00031680422929 0  -6.003911100035799 26.00049367842447 0  -5.005378450398564 26.00069334073836 0  -4.005445297297337 25.99955736045085 0  -3.005381743604766 25.9984207124944 0  -2.003458836524718 25.99848273652988 0  -1.001632728646564 25.99851626947298 0  0.0001457174797556087 25.99852235102514 0  1.001924416121857 25.99850118028437 0  2.003751271352679 25.99845211654675 0  3.005675392584172 25.9983736767781 0  4.005735422339138 25.99951057174637 0  5.005664856619388 26.00064757920334 0  6.004125755749532 26.00046023241463 0  7.002692835162732 26.00029492358992 0  8.001329294640131 26.00014393543892 0  9 26 0  -9 28 0  -8.000647425563763 28.00020328823533 0  -7.001312619960133 28.00041508970865 0  -6.002013882387062 28.00064413603898 0  -5.002770311645194 28.00089960254462 0  -4.002807104594239 27.99954309520623 0  -3.002775426145545 27.99818622766943 0  -2.001759080039325 27.9982651691384 0  -1.000794029295787 27.99831013086462 0  0.0001457570359305645 27.99832228212831 0  1.001085664543101 27.99830193729073 0  2.002051065739256 27.99824855584819 0  3.003067953070048 27.99816074146367 0  4.00309527815539 27.99951817697532 0  5.003054156531862 28.00087564207477 0  6.002226849856061 28.0006265863849 0  7.001454625435318 28.00040358971371 0  8.000718430367
[...]
<PointData  Scalars="f_44-1"> 
<DataArray  type="Float64"  Name="f_44-1"  format="ascii">1.6075134604018801e-03  6.6706070990540088e-05  6.0972011622410349e-05  1.7902691088534219e-04  -1.8418062142576343e-03  0.0000000000000000e+00  0.0000000000000000e+00  0.0000000000000000e+00  0.0000000000000000e+00  0.0000000000000000e+00  0.0000000000000000e+00  0.0000000000000000e+00  0.0000000000000000e+00  0.0000000000000000e+00  1.6218536408772397e-03  6.6348824135070269e-05  6.1608755301457375e-05  1.7487107253268437e-04  -1.8691099955698541e-03  9.1770752267322536e-02  9.1816010407444082e-02  9.1715366295956932e-02  9.1452180537066413e-02  9.1326443598405416e-02  0.0000000000000000e+00  0.0000000000000000e+00  0.0000000000000000e+00  0.0000000000000000e+00  0.0000000000000000e+00  0.0000000000000000e+00  0.0000000000000000e+00  0.0000000000000000e+00  0.0000000000000000e+00  9.1901496607194738e-02  9.1945106649846634e-02  9.1841139269609018e-02  9.1575224720026466e-02  9.1447049990439219e-02  1.8335377203831998e-01  1.8334316811113030e-01  1.8329906496680726e-01  1.8327228108083757e-01  1.8329215464553741e-01  0.0000000000000000e+00  0.0000000000000000e+00  0.0000000000000000e+00  0.0000000000000000e+00  0.0000000000000000e+00  0.0000000000000000e+00  0.0000000000000000e+00  0.0000000000000000e+00  0.0000000000000000e+00  1.8358685109833872e-01  1.8358758181139709e-01  1.8355374349567780e-01  1.8353305968372194e-01  1.8355790850380008e-01  2.7500641069251147e-01  2.7500055887950869e-01  2.7499502316226859e-01  2.7499032972581250e-01  2.7497245237237500e-01  0.0000000000000000e+00  0.0000000000000000e+00  0.0000000000000000e+00  0.0000000000000000e+00  0.0000000000000000e+00  0.0000000000000000e+00  0.0000000000000000e+00  0.0000000000000000e+00  0.0000000000000000e+00  2.7537297851795084e-01  2.7536523409052843e-01  2.7536655087237266e-01  2.7537074446376736e-01  2.7537277842298358e-01  3.6670814476730801e-01  3.6669470798470849e-01  3.6666433259787024e-01  3.6659146212672972e-01  3.6653826661307809e-01  0.0000000000000000e+00  0.0000000000000000e+00  0.0000000000000000e+00  0.0000000000000000e+00  0.0000000000000000e+00  0.0000000000000000e+00  0.0000000000000000e+00  0.0000000000000000e+00  0.0000000000000000e+00  3.6713218312069784e-01  3.6716602985506497e-01  3.6717536352989599e-01  3.6718512551264182e-01  3.6719218506238971e-01  4.5846131813491964e-01  4.5844516663946761e-01  4.5842435540803916e-01  4.5842280264982321e-01  4.5845342725552313e-01  0.0000000000000000e+00  1.3901036607805020e+00  1.3900126749692023e+00  1.3901532837345163e+00  1.3901568392144166e+00  1.3901643184280197e+00  1.3900638511185601e+00  1.3892505599108891e+00  0.0000000000000000e+00  4.5897127498524659e-01  4.5897381939905402e-01  4.5898245893898859e-01  4.5900417485910261e-01  4.5901751257946655e-01  5.5024536548556613e-01  5.5022229297537084e-01  5.5018243474650497e-01  5.5013152393115317e-01  5.5001274110133014e-01  0.0000000000000000e+00  1.3901435959497073e+00  1.3901841647120421e+00  1.3902050248901852e+00  1.3901898132725692e+00  1.3901885181059856e+00  1.3901647124650347e+00  1.3903240462041559e+00  0.0000000000000000e+00  5.5064721330884348e-01  5.5071901427024617e-01  5.5080372448579629e-01  5.5085086539363859e-01  5.5087235600616224e-01  6.4210373692279177e-01  6.4207528356468191e-01  6.4201327251627816e-01  6.4191795095582915e-01  6.4176816822864446e-01  0.0000000000000000e+00  1.3904724764865672e+00  1.3903559908719199e+00  1.3902657005224015e+00  1.3902353868437314e+00  1.3902409615311442e+00  1.3902788416620195e+00  1.3903407035131305e+00  0.0000000000000000e+00  6.4242958933873406e-01  6.4259762814564603e-01  6.4271749546359402e-01  6.4279092173229524e-01  6.4281987323523837e-01  7.3409957295797279e-01  7.3406905448450799e-01  7.3399090830378788e-01  7.3386414187211280e-01  7.3366927886226696e-01  0.0000000000000000e+00  1.3904096917648585e+00  1.3902743066854166e+00  1.3901886171919347e+00  1.3901538128476547e+00  1.3901658853344883e+00  1.3902249001019480e+00  1.3903471669121334e+00  0.0000000000000000e+00  7.3444489061490303e-01  7.3465892813392131e-01  7.3481369421265585e-01  7.3490441782027671e-01  7.3493561612588987e-01  8.2628430540428066e-01  8.2625553192049694e-01  8.2617252932825580e-01  8.2603417184043493e-01  8.2582743618243704e-01  0.0000000000000000e+00  1.3901810752260026e+00  1.3900150553430197e+00  1.3899112146875892e+00  1.3898705841072125e+00  1.3898913537585922e+00  1.3899730688858416e+00  1.3901255053793415e+00  0.0000000000000000e+00  8.2678571941766665e-01  8.2699937139458835e-01  8.2715155870511881e-01  8.2724161787534578e-01  8.2727038013655751e-01  9.1868145549816571e-01  9.1865774872942374e-01  9.1858133204259895e-01  9.1845178110833270e-01  9.1826152794193361e-01  0.0000000000000000e+00  1.3896682733555381e+00  1.3894934095670961e+00  1.3893882212750737e+00  1.3893487941888860e+00  1.3893741901387135e+00  1.3894651543461198e+00  1.3896269467173263e+00  0.0000000000000000e+00  9.1941363908494234e-01  9.1960286438131567e-01  9.1973515928337768e-01  9.1981296722042116e-01  9.1983567396110777e-01  1.0112837247596129e+00  1.0112673815274191e+00  1.0112067319365434e+00  1.0111019894987168e+00  1.0109497611299876e+00  0.0000000000000000e+00  1.3888694174570217e+00  1.3887035993436307e+00  1.3886065219762980e+00  1.3885707447040394e+00  1.3885966759131154e+00  1.3886858500149146e+00  1.3888396330123467e+00  0.0000000000000000e+00  1.0122948265113254e+00  1.0124380354875679e+00  1.0125356447735119e+00  1.0125928704436706e+00  1.0126072618364175e+00  1.1040576471120409e+00  1.1040497834365224e+00  1.1040110771212550e+00  1.1039420881083597e+00  1.1038427430631979e+00  0.0000000000000000e+00  1.3877999859711041e+00  1.3876589405521433e+00  1.3875785499737878e+00  1.3875490680551752e+00  1.3875718917516902e+00  1.3876491233088801e+00  1.3877784256842236e+00  0.0000000000000000e+00  1.1053644344674347e+00  1.1054475371273911e+00  1.1055009175007546e+00  1.1055321837068750e+00  1.1055371409725359e+00  1.1969506148705591e+00  1.1969512689220301e+00  1.1969376252183552e+00  1.1969103068680202e+00  1.1968716889330147e+00  0.0000000000000000e+00  1.3865024796807546e+00  1.3863988678017340e+00  1.3863419625286288e+00  1.3863207912124189e+00  1.3863374809403974e+00  1.3863945393802970e+00  1.3864864845054656e+00  0.0000000000000000e+00  1.1985404349302156e+00  1.1985567122974210e+00  1.1985618441303014e+00  1.1985650037248823e+00  1.1985605915716735e+00  1.2898988118684060e+00  1.2899070523352751e+00  1.2899186770860152e+00  1.2899340238921604e+00  1.2899573972844749e+00  0.0000000000000000e+00  1.3850407519257466e+00  1.3849833202364772e+00  1.3849543682090255e+00  1.3849427752860584e+00  1.3849511375201540e+00  1.3849821872523698e+00  1.3850279155294478e+00  0.0000000000000000e+00  1.2917336672952675e+00  1.2916832805652991e+00  1.2916411058089829e+00  1.2916169635133863e+00  1.2916042591516357e+00  1.3828346494275139e+00  1.3828487766762436e+00  1.3828833197954931e+00  1.3829380680541370e+00  1.3830186575792687e+00  0.0000000000000000e+00  1.3834930870808273e+00  1.3834863288200461e+00  1.3834872965759790e+00  1.3834857423472819e+00  1.3834844752558533e+00  1.3834862525695080e+00  1.3834812496873925e+00  0.0000000000000000e+00  1.3848560187434922e+00  1.3847452999603218e+00  1.3846611719608990e+00  1.3846131117721183e+00  1.3845940006404225e+00  1.4756937899612885e+00  1.4757115568071386e+00  1.4757645275357090e+00  1.4758517868263279e+00  1.4759797224012938e+00  0.0000000000000000e+00  1.3819453134353221e+00  1.3819893010422284e+00  1.3820195397362689e+00  1.3820276308706247e+00  1.3820163330455775e+00  1.3819882069019542e+00  1.3819324285640866e+00  0.0000000000000000e+00  1.4778280172317140e+00  1.4776685148344344e+00  1.4775514577055719e+00  1.4774849685417901e+00  1.4774619082145308e+00  1.5684211136368202e+00  1.5684399657284962e+00  1.5685052462513789e+00  1.5686153057080003e+00  1.5687765997102356e+00  0.0000000000000000e+00  1.3804836147238331e+00  1.3805739665673051e+00  1.3806302344372836e+00  1.3806466710313279e+00  1.3806258035085341e+00  1.3805697499648728e+00  1.3804675923240437e+00  0.0000000000000000e+00  1.5705851020348784e+00  1.5703925097099014e+00  1.5702543560289293e+00  1.5701765276269186e+00  1.5701523030524185e+00  1.6609755642030533e+00  1.6609929096727445e+00  1.6610632917784505e+00  1.6611844609834756e+00  1.6613621480800378e+00  0.0000000000000000e+00  1.3791872453211054e+00  1.3793152205491654e+00  1.3793917076416498e+00  1.3794143221650341e+00  1.3793851530323269e+00  1.3793056072557937e+00  1.3791657932487404e+00  0.0000000000000000e+00  1.6630827295690360e+00  1.6628756978589205e+00  1.6627302095026504e+00  1.6626491227100841e+00  1.6626265729914840e+00  1.7533337966846609e+00  1.7533471626305968e+00  1.7534149588053189e+00  1.7535346845139599e+00  1.7537101961905892e+00  0.0000000000000000e+00  1.3781212996710401e+00  1.3782741143015187e+00  1.3783626461814562e+00  1.3783884369579851e+00  1.3783529791374620e+00  1.3782567130321741e+00  1.3780918895458925e+00  0.0000000000000000e+00  1.7553002890752969e+00  1.7550990120162071e+00  1.7549607875394861e+00  1.7548848558077257e+00  1.7548665947656141e+00  1.8454921024971247e+00  1.8454998257277675e+00  1.8455580359893724e+00  1.8456641607450861e+00  1.8458188415715067e+00  0.0000000000000000e+00  1.3773299119428517e+00  1.3774911194972308e+00  1.3775816148934397e+00  1.3776069695849038e+00  1.3775678598289705e+00  1.3774633846028808e+00  1.3772892950521891e+00  0.0000000000000000e+00  1.8472435864876364e+00  1.8470681921963739e+00  1.8469514428756937e+00  1.8468885574197977e+00  1.8468766547701763e+00  1.9374662902245463e+00  1.9374668935537926e+00  1.9375088226886932e+00  1.9375903098851919e+00  1.9377072640673887e+00  0.0000000000000000e+00  1.3768285820335990e+00  1.3769808292715340e+00  1.3770623383378195e+00  1.3770831468959066e+00  1.3770427347246417e+00  1.3769394170941782e+00  1.3767739722070784e+00  0.0000000000000000e+00  1.9389460038033850e+00  1.9388148570787880e+00  1.9387311642580538e+00  1.9386877040058008e+00  1.9386832964042342e+00  2.0292909661394587e+00  2.0292862289613964e+00  2.0293099825063985e+00  2.0293612513778485e+00  2.0294279723360504e+00  0.0000000000000000e+00  1.3766057511033010e+00  1.3767281960419904e+00  1.3767872210453749e+00  1.3767994151906051e+00  1.3767648727948847e+00  1.3766795080141154e+00  1.3765444320730582e+00  0.0000000000000000e+00  2.0304719201798087e+00  2.0303923099514964e+00  2.0303503076477214e+00  2.0303298137660195e+00  2.0303327695830040e+00  2.1210081421735087e+00  2.1209975509758103e+00  2.1210014329401861e+00  2.1210329186320465e+00  2.1210671378883932e+00  0.0000000000000000e+00  1.3766129879331916e+00  1.3766748245233817e+00  1.3767130081405827e+00  1.3767186582462758e+00  1.3766880527081471e+00  1.3765972050550681e+00  1.3764809676081979e+00  0.0000000000000000e+00  2.1218776879795316e+00  2.1218754131030746e+00  2.1218743154104480e+00  2.1218771692300331e+00  2.1218857035472611e+00  2.2126717002649459e+00  2.2126602724158069e+00  2.2126538310829154e+00  2.2126460814944364e+00  2.2125789224806263e+00  0.0000000000000000e+00  1.3766304639171754e+00  1.3767906657480304e+00  1.3767676340859261e+00  1.3767666457726886e+00  1.3767512662627661e+00  1.3767713284417016e+00  1.3768095305488668e+00  0.0000000000000000e+00  2.2133469431274708e+00  2.2133390682394731e+00  2.2133769256501732e+00  2.2133973428294307e+00  2.2134086074788435e+00  2.3043388434889249e+00  2.3043271123431301e+00  2.3043037769743098e+00  2.3042448408320158e+00  2.3041878765736961e+00  0.0000000000000000e+00  1.3777030961483441e+00  1.3768932459420167e+00  1.3767955545051258e+00  1.3768033668269473e+00  1.3768064407459455e+00  1.3769443820693867e+00  1.3768545077510479e+00  0.0000000000000000e+00  2.3047059530548006e+00  2.3048571578206536e+00  2.3049206128341626e+00  2.3049520478923542e+00  2.3049625632314754e+00  2.3960524069054570e+00  2.3960504230644868e+00  2.3960289139904147e+00  2.3960001207842789e+00  2.3959894562259456e+00  0.0000000000000000e+00  0.0000000000000000e+00  0.0000000000000000e+00  0.0000000000000000e+00  0.0000000000000000e+00  0.0000000000000000e+00  0.0000000000000000e+00  0.0000000000000000e+00  0.0000000000000000e+00  2.3965244124638452e+00  2.3965410312825757e+00  2.3965554624256775e+00  2.3965744944181551e+00  2.3965845328467679e+00  2.4878441619502931e+00  2.4878112769895480e+00  2.4878076447024444e+00  2.4878065093327479e+00  2.4877748866841438e+00  0.0000000000000000e+00  0.0000000000000000e+00  0.0000000000000000e+00  0.0000000000000000e+00  0.0000000000000000e+00  0.0000000000000000e+00  0.0000000000000000e+00  0.0000000000000000e+00  0.0000000000000000e+00  2.4882792155357212e+00  2.4882374121327717e+00  2.4882445016220363e+00  2.4882602957575819e+00  2.4882523174929307e+00  2.5795167449895353e+00  2.5795547240934895e+00  2.5795800620600224e+00  2.5795094971078218e+00  2.5794915006065384e+00  0.0000000000000000e+00  0.0000000000000000e+00  0.0000000000000000e+00  0.0000000000000000e+00  0.0000000000000000e+00  0.0000000000000000e+00  0.0000000000000000e+00  0.0000000000000000e+00  0.0000000000000000e+00  2.5798298880826356e+00  2.5798628232926339e+00  2.5798848413857280e+00  2.5798160114484991e+00  2.5798023571771980e+00  2.6713732357321351e+00  2.6715868560432998e+00  2.6715039531598963e+00  2.6716317666071898e+00  2.6719290741192574e+00  0.0000000000000000e+00  0.0000000000000000e+00  0.0000000000000000e+00  0.0000000000000000e+00  0.0000000000000000e+00  0.0000000000000000e+00  0.0000000000000000e+00  0.0000000000000000e+00  0.0000000000000000e+00  2.6715594818145729e+00  2.6717510264141597e+00  2.6716610786589774e+00  2.6717797894590145e+00  2.6720631857656563e+00  2.7663615507766162e+00  2.7629145214255160e+00  2.7628256562182312e+00  2.7630238569752348e+00  2.7610584788119925e+00  0.0000000000000000e+00  0.0000000000000000e+00  0.0000000000000000e+00  0.0000000000000000e+00  0.0000000000000000e+00  0.0000000000000000e+00  0.0000000000000000e+00  0.0000000000000000e+00  0.0000000000000000e+00  2.7663109698214159e+00  2.7629203223218779e+00  2.7628283614568865e+00  2.7630228222822084e+00  2.7610867470176861e+00  </DataArray> 
</PointData> 
</Piece>
</UnstructuredGrid>
</VTKFile>