<?xml version="1.0"?>
<VTKFile type="UnstructuredGrid"  version="0.1"  >
<UnstructuredGrid>
<Piece  NumberOfPoints="589" NumberOfCells="1080">
<Points>
<DataArray  type="Float64"  NumberOfComponents="3"  format="ascii">-9 0 0  -8 0 0  -7 0 0  -6 0 0  -5 0 0  -4 0 0  -3 0 0  -2 0 0  -1 0 0  0 0 0  1 0 0  2 0 0  3 0 0  4 0 0  5 0 0  6 0 0  7 0 0  8 0 0  9 0 0  -9 2 0  -8.000002235689154 1.999996217468575 0  -7.000004757857003 1.99999290949957 0  -6.000008197212584 1.999990462789634 0  -5.000013958140961 1.999989048849946 0  -4.00000804546626 1.999991736632632 0  -3.000001885014877 1.999994345235854 0  -1.999998863746056 1.999996812781362 0  -0.9999983375326182 1.99999874271151 0  6.605779973754048e-07 1.999999518389871 0  0.9999996451718103 1.99999874337483 0  2.00000012266905 1.999996526368725 0  3.000003155039667 1.999993738343062 0  4.000009192926042 1.999990507609537 0  5.000018089553075 1.999988403331338 0  6.000011282404027 1.999989355502066 0  7.000006828594982 1.999991974888953 0  8.000003280181136 1.999995705926954 0  9 2 0  -9.000000000004983 4 0  -8.00000332545191 3.999990536772165 0  -7.000005846974516 3.999982374024221 0  -6.000007108121225 3.999976794531926 0  -5.000007244824875 3.999975039130313 0  -3.999998421265313 3.999976028255426 0  -2.999992421775261 3.999983405115556 0  -1.999990758378791 3.999993126163155 0  -0.9999928647400935 4.000000907384854 0  2.980331122473485e-06 4.000003859557101 0  0.9999988001567123 4.000000861249847 0  1.999996644566804 3.999993292303908 0  2.999998589820238 3.999982980702476 0  4.000005283808094 3.999972231507387 0  5.00001513439914 3.999967325375297 0  6.000013151382322 3.999972042237928 0  7.000010035547024 3.999979503315924 0  8.000005487359719 3.999989159856353 0  9 4 0  -9 6 0  -8.000007630826543 5.99997965458803 0  -7.000011977601907 5.999961505929177 0  -6.000010516797046 5.999947830306897 0  -5.000002486165879 5.999940855776928 0  -3.99998508779463 5.999951551791661 0  -2.999976970575427 5.999974600314549 0  -1.999979590922104 5.999998929218044 0  -0.9999869420520485 6.00001262094194 0  5.391843061538825e-06 6.000015230875937 0  0.9999983575736043 6.000010224101045 0  1.999993034301979 5.999996696439674 0  2.999991357705207 5.999973912783074 0  3.999996236977907 5.999949962863272 0  5.000012338950229 5.999937200636539 0  6.000019551652469 5.999943752557523 0  7.000018971753032 5.999958250429028 0  8.000011450989229 5.999977879894903 0  9 6 0  -9 8 0  -8.000025070867752 7.99995998741461 0  -7.000041337801422 7.999922747871381 0  -6.000040204276949 7.999892063922936 0  -5.000014143862893 7.999874195625172 0  -3.999980921248453 7.999924700334422 0  -2.99998557903844 7.999984479491741 0  -1.999996811273704 8.00001439687834 0  -0.9999973176026595 8.000018802767256 0  1.019381619915103e-05 8.0000202292123 0  1.000015567527986 8.000023178205216 0  2.000012886040297 8.000009222783858 0  2.999997740047739 7.99998550539197 0  3.999992889697187 7.999928641454642 0  5.000027877743837 7.999864773563622 0  6.000057120690149 7.999883682447786 0  7.000055669388926 7.999916473826962 0  8.000033133699331 7.99995663944753 0  9 8 0  -9 10 0  -8.000077716878236 9.999929236048635 0  -7.000140289676279 9.999857779761815 0  -6.000169588547055 9.999785055399251 0  -5.000140273991932 9.999710754396357 0  -4.000088341488837 9.999871897755213 0  -3.000094169487164 10.00001127459684 0  -2.000071779688783 9.999990529898056 0  -1.00002598880593 9.999983909640838 0  8.657039234367496e-06 9.999982291335179 0  1.000043547536258 9.999982098174579 0  2.000090530698908 9.999979993990808 0  3.000131192386895 10.00003229915987 0  4.000125897617336 9.999885461810166 0  5.000190425749479 9.999692654427022 0  6.00021744243123 9.99976810159902 0  7.000176688911018 9.999845211192381 0  8.000097197936256 9.999922626319593 0  9 10 0  -9 12 0  -8.00019089471207 11.99990127065584 0  -7.000372264393507 11.99979791188707 0  -6.000533282780152 11.99968440190647 0  -5.000660470018317 11.99955307056731 0  -4.000633913517107 11.99984359468801 0  -3.000654777538176 12.00013100856762 0  -2.000428348826763 12.00010009788456 0  -1.000180480547449 12.00008525518194 0  7.455794266538836e-05 12.00008583546582 0  1.000330109943096 12.00010274827682 0  2.000579996812955 12.00014001156026 0  3.000811642662014 12.00020737054466 0  4.000783886201861 11.99985495801397 0  5.000804652980355 11.99949951947217 0  6.000648722453768 11.99964591645097 0  7.00045259620375 11.99977275440799 0  8.000232051522291 11.99988879644161 0  9 12 0  -9 14 0  -8.000342082197493 13.99989184138195 0  -7.000685499273626 13.99977868072438 0  -6.001032053257902 13.99965508034854 0  -5.001384798722653 13.99951475161124 0  -4.001388095146916 13.9998496816693 0  -3.001387178058558 14.0001886860995 0  -2.00087084854008 14.00014542859377 0  -1.000363716946038 14.00012493959569 0  0.0001384510972946289 14.00012407995201 0  1.000639503539021 14.00014203735532 0  2.001142729281817 14.00017970579204 0  3.001650305352526 14.00023904806344 0  4.001653550487786 13.99984043308596 0  5.001658891446662 13.99944390459282 0  6.001240513471481 13.99960205727358 0  7.000826016575608 13.999743535583 0  8.000412831253856 13.99987435054341 0  9 14 0  -9 16 0  -8.000487808382434 15.99990243217861 0  -7.000985985060923 15.99980123399263 0  -6.001505732178872 15.99969271092665 0  -5.002059997230298 15.9995731041301 0  -4.002079944755295 15.99985156528456 0  -3.00205813071247 16.00012819631623 0  -2.001276885005877 16.00009979049344 0  -1.000527230389318 16.00008619264243 0  0.0002068376435456938 16.00008713587271 0  1.000940396212354 16.00010256273302 0  2.001688440066582 16.00013278697214 0  3.002466833231574 16.00017841727554 0  4.002489008019507 15.99982939206267 0  5.00247153327088 15.99947982084313 0  6.001816317342492 15.99962495907962 0  7.001193907277584 15.99975701478717 0  8.000592023336162 15.99988059062314 0  9 16 0  -9 18 0  -8.000591935589586 17.99992754728153 0  -7.001199958235445 17.99985309971768 0  -6.001840967414353 17.99977469709949 0  -5.002533500290815 17.99969046310391 0  -4.002563879943787 17.99985007976044 0  -3.002532018061045 18.00000917975702 0  -2.001556985543184 17.99999501082575 0  -1.000628586684278 17.99998937469399 0  0.0002772784612974814 17.9999923507251 0  1.001183568653769 18.0000039914547 0  2.002113211550169 18.0000243345334 0  3.003090214430708 18.00005335885624 0  4.003123190947083 17.99982070848823 0  5.003093283210974 17.99958835958326 0  6.002260362873417 17.99970023317816 0  7.001479353577278 17.99980443987465 0  8.000731575185652 17.99990350691428 0  9 18 0  -9 20 0  -8.000631597294459 19.99996063977945 0  -7.001281749828062 19.99992078911273 0  -6.001969719770028 19.99988001634232 0  -5.002716188051861 19.99983800901774 0  -4.002750856089629 19.99984758929507 0  -3.002714376011774 19.9998566524723 0  -2.001651044987641 19.9998561663564 0  -1.000640033920477 19.99985817649611 0  0.0003460300396236634 19.99986297697351 0  1.001333576169928 19.99987067986839 0  2.002349057231752 19.9998812226352 0  3.00341992486248 19.99989435197958 0  4.003457723163352 19.99981567469516 0  5.003421632588167 19.99973715448474 0  6.002496209306517 19.99980618798557 0  7.001631530286669 19.9998724303545 0  8.000806128470845 19.99993671768092 0  8.999999999969452 19.99999999999719 0  -9 22 0  -8.000596927558309 21.99999569242797 0  -7.001212034190158 21.9999921677106 0  -6.00186407789514 21.99999027644826 0  -5.002572973648835 21.99999100620638 0  -4.002606698728115 21.99984384921922 0  -3.002571179990531 21.99969618165426 0  -2.001536334874241 21.99970735878583 0  -1.000551925893101 21.99971584181625 0  0.0004088673465005374 21.99972201935102 0  1.001372107531864 21.99972603377051 0  2.002363901195243 21.99972778653697 0  3.003411202893389 21.99972693413388 0  4.003448304757796 21.99981329856294 0  5.003411465033225 21.99989969301117 0  6.002488544964613 21.99992330546646 0  7.001626273894773 21.99994823767785 0  8.000803430358044 21.9999739420816 0  9 22 0  -9 24 0  -8.000489423390441 24.00002761500966 0  -7.000994320852235 24.00005701471022 0  -6.00153061156372 24.00009005517115 0  -5.002115089098795 24.00012873706971 0  -4.002143702914249 23.99983912652341 0  -3.002113547848123 23.99954906114164 0  -2.001220384883214 23.99956930595729 0  -1.000369583898798 23.99958270958959 0  0.0004619375921824885 23.99958969544152 0  1.001296698074027 23.99959041514768 0  2.002157269903877 23.99958475026296 0  3.003066897482651 23.99957231079131 0  4.003098829413068 23.99981316261442 0  5.00306578698446 24.0000539756622 0  6.002237779205445 24.00003513792522 0  7.001463004823876 24.00002095132484 0  8.000722941213875 24.00000974755487 0  9 24 0  -9 26 0  -8.000319883985643 26.00005240278055 0  -7.000650768453523 26.00010730321182 0  -6.00100395816683 26.00016727265734 0  -5.001391343384419 26.00023503194608 0  -4.001411677215119 25.99983373742634 0  -3.001390244494118 25.9994320545361 0  -2.000735486481353 25.99945856955551 0  -1.000110346500405 25.99947520083149 0  0.0005020762482307632 25.99948238897832 0  1.001118317700087 25.99948028764437 0  2.001754970907112 25.9994687642528 0  3.002429116341912 25.99944739972695 0  4.002452454884182 25.99981481180232 0  5.002426724809242 26.00018211431006 0  6.001773589918647 26.00012836133238 0  7.00116059674926 26.00008173133838 0  8.000573824880526 26.00003972734868 0  9 26 0  -9 28 0  -8.000106176469593 28.00006720425782 0  -7.000217694341259 28.00013732060715 0  -6.000340053695292 28.0002133367357 0  -5.000479040975334 28.00029839225642 0  -4.00048896789197 27.99982807262191 0  -3.000478513722003 27.99935744843238 0  -2.000132603669341 27.99938731567649 0  -0.9998004610277857 27.99940541282902 0  0.000526963294045091 27.99941218908276 0  1.000858554004562 27.99940779659659 0  2.001203256260568 27.9993920910953 0  3.00157030092834 27.9993646314795 0  4.001582718928113 27.99981783804836 0  5.00156679910333 28.0002708803664 0  6.001148343290038 28.0001930910525 0  7.000752998381253 28.00012400784807 0  8.000372
[...]
<PointData  Scalars="f_44-1"> 
<DataArray  type="Float64"  Name="f_44-1"  format="ascii">2.4890691956870397e-04  -1.9671661981583751e-05  1.1180036747654740e-05  -9.8573905919264917e-05  3.6409090197258670e-04  0.0000000000000000e+00  0.0000000000000000e+00  0.0000000000000000e+00  0.0000000000000000e+00  0.0000000000000000e+00  0.0000000000000000e+00  0.0000000000000000e+00  0.0000000000000000e+00  0.0000000000000000e+00  2.3345563782004700e-04  -1.6877353971299728e-07  2.8646126946523514e-05  -9.8344494922749030e-05  3.8189678904500555e-04  2.5093078711090167e-02  2.5092657756132966e-02  2.4995845281323353e-02  2.4893722274748332e-02  2.4882434189012977e-02  0.0000000000000000e+00  0.0000000000000000e+00  0.0000000000000000e+00  0.0000000000000000e+00  0.0000000000000000e+00  0.0000000000000000e+00  0.0000000000000000e+00  0.0000000000000000e+00  0.0000000000000000e+00  2.4569611753081595e-02  2.4546475811208814e-02  2.4435779451349140e-02  2.4347534570442527e-02  2.4348903965942185e-02  4.9971307463869942e-02  4.9947219831558601e-02  4.9907500935530917e-02  4.9884897377250527e-02  4.9912471701225515e-02  0.0000000000000000e+00  0.0000000000000000e+00  0.0000000000000000e+00  0.0000000000000000e+00  0.0000000000000000e+00  0.0000000000000000e+00  0.0000000000000000e+00  0.0000000000000000e+00  0.0000000000000000e+00  4.8899441947069057e-02  4.8924384505752115e-02  4.8922892654244161e-02  4.8894806123154423e-02  4.8894547180600947e-02  7.4935478846454684e-02  7.4953863422836609e-02  7.5000466125490106e-02  7.5056522707881254e-02  7.5086096741221062e-02  0.0000000000000000e+00  0.0000000000000000e+00  0.0000000000000000e+00  0.0000000000000000e+00  0.0000000000000000e+00  0.0000000000000000e+00  0.0000000000000000e+00  0.0000000000000000e+00  0.0000000000000000e+00  7.3399537209020982e-02  7.3399823322487956e-02  7.3401446213695959e-02  7.3406226168220581e-02  7.3408248795611100e-02  9.9856731367110915e-02  9.9853860135008077e-02  9.9819097237495116e-02  9.9747984433695841e-02  9.9708582931278100e-02  0.0000000000000000e+00  0.0000000000000000e+00  0.0000000000000000e+00  0.0000000000000000e+00  0.0000000000000000e+00  0.0000000000000000e+00  0.0000000000000000e+00  0.0000000000000000e+00  0.0000000000000000e+00  9.7792582870093028e-02  9.7868632681109846e-02  9.7907481180281211e-02  9.7920831210694920e-02  9.7930060476287745e-02  1.2481647730284154e-01  1.2482324946214998e-01  1.2482422956908791e-01  1.2484768854494029e-01  1.2481268137710233e-01  0.0000000000000000e+00  3.9975956142051916e-01  3.9971629035344025e-01  3.9950966649019076e-01  3.9940710749900593e-01  3.9951310436136278e-01  3.9980182332344733e-01  4.0005787091848921e-01  0.0000000000000000e+00  1.2250947456476818e-01  1.2252501387830164e-01  1.2249058354707069e-01  1.2246893819524063e-01  1.2246870801147162e-01  1.4978026963672392e-01  1.4979880713584573e-01  1.4982910322952900e-01  1.4988878716330087e-01  1.4989127669850097e-01  0.0000000000000000e+00  3.9943844854237293e-01  3.9920155145134445e-01  3.9907478267555835e-01  3.9905697600555690e-01  3.9913003776736483e-01  3.9925012283339595e-01  3.9944270461220283e-01  0.0000000000000000e+00  1.4718615000610161e-01  1.4714509268235743e-01  1.4705264136879512e-01  1.4698934437546488e-01  1.4697259410321037e-01  1.7471666124886895e-01  1.7474485161568223e-01  1.7478677757024622e-01  1.7485203050197803e-01  1.7485275056094179e-01  0.0000000000000000e+00  3.9848709953602568e-01  3.9837773021960710e-01  3.9831548028139507e-01  3.9831388217573344e-01  3.9837816136351689e-01  3.9851449802109151e-01  3.9869815716345369e-01  0.0000000000000000e+00  1.7162362830006070e-01  1.7158218332047784e-01  1.7148331753515181e-01  1.7142673814850046e-01  1.7139942520744247e-01  1.9964105907252916e-01  1.9967191282281344e-01  1.9969763774400012e-01  1.9971872481566458e-01  1.9966594597801784e-01  0.0000000000000000e+00  3.9754391824569990e-01  3.9736686506687180e-01  3.9727703469485076e-01  3.9727122337900578e-01  3.9734720064544893e-01  3.9750708209961921e-01  3.9775956976971527e-01  0.0000000000000000e+00  1.9580062752750035e-01  1.9585336947471074e-01  1.9582936530488723e-01  1.9580601074217571e-01  1.9578106352286098e-01  2.2462884966774230e-01  2.2465546155514834e-01  2.2464513615004739e-01  2.2459151536242830e-01  2.2445640966688030e-01  0.0000000000000000e+00  3.9624087320557705e-01  3.9602705256012027e-01  3.9591233735099357e-01  3.9589595599074406e-01  3.9597604996549068e-01  3.9615461429444704e-01  3.9643246042611874e-01  0.0000000000000000e+00  2.1997324765605680e-01  2.2013886129785321e-01  2.2021103301186418e-01  2.2023992613965906e-01  2.2022107570184860e-01  2.4979215957627768e-01  2.4980966984296860e-01  2.4975565294695032e-01  2.4962008140221004e-01  2.4940299793413123e-01  0.0000000000000000e+00  3.9451106724398172e-01  3.9427852996826879e-01  3.9415331892131245e-01  3.9413278314072392e-01  3.9421321417373179e-01  3.9439725987004043e-01  3.9468843869458303e-01  0.0000000000000000e+00  2.4434902375556425e-01  2.4462126469357745e-01  2.4479226361942971e-01  2.4487622958147487e-01  2.4486695762204549e-01  2.7524763050774159e-01  2.7525333578943567e-01  2.7515797091018346e-01  2.7495045349877911e-01  2.7467024393880923e-01  0.0000000000000000e+00  3.9232565701643562e-01  3.9210160340176931e-01  3.9198093475802365e-01  3.9195996251968918e-01  3.9203584183377260e-01  3.9221161392041337e-01  3.9249094796526274e-01  0.0000000000000000e+00  2.6912033818691855e-01  2.6947584163670385e-01  2.6973219259538750e-01  2.6986491006992747e-01  2.6986816971062522e-01  3.0109013383817734e-01  3.0108329061942196e-01  3.0095612865081084e-01  3.0069845307703746e-01  3.0038518155354837e-01  0.0000000000000000e+00  3.8969832293007878e-01  3.8951012706333776e-01  3.8941048703889575e-01  3.8939515012785297e-01  3.8946231483884775e-01  3.8961471413377802e-01  3.8985573031922227e-01  0.0000000000000000e+00  2.9443955333103744e-01  2.9484317526262110e-01  2.9515949271907099e-01  2.9532808288880857e-01  2.9534485470604505e-01  3.2737500899373628e-01  3.2735660952133333e-01  3.2721186911763650e-01  3.2693290895970545e-01  3.2662217099592683e-01  0.0000000000000000e+00  3.8669573455186346e-01  3.8656696719057032e-01  3.8650244205465423e-01  3.8649770831115443e-01  3.8655226827825767e-01  3.8666826734009108e-01  3.8684849146782552e-01  0.0000000000000000e+00  3.2039928146567825e-01  3.2081029616538831e-01  3.2115424965371608e-01  3.2134151115216264e-01  3.2137066981694407e-01  3.5410843405560077e-01  3.5408084072762114e-01  3.5393508243416888e-01  3.5366655945981806e-01  3.5339445196868041e-01  0.0000000000000000e+00  3.8342506633830065e-01  3.8337246670610803e-01  3.8335295713024325e-01  3.8336240997826176e-01  3.8340166787991492e-01  3.8347206287767271e-01  3.8357539884622416e-01  0.0000000000000000e+00  3.4702442514678361e-01  3.4740152837775690e-01  3.4773794496419158e-01  3.4792470994181340e-01  3.4796350342035787e-01  3.8124475556329185e-01  3.8121149071035865e-01  3.8108154919500120e-01  3.8085421703350286e-01  3.8065299997467883e-01  0.0000000000000000e+00  3.8002087676405250e-01  3.8005269705809358e-01  3.8008299141891461e-01  3.8010851170415599e-01  3.8013128449421763e-01  3.8015170991580405e-01  3.8017033375942788e-01  0.0000000000000000e+00  3.7427066025453642e-01  3.7457637259272103e-01  3.7487110341073848e-01  3.7503836948719554e-01  3.7508294770697714e-01  4.0869136961064884e-01  4.0865630100739231e-01  4.0855720889867636e-01  4.0839736187118281e-01  4.0829184058219031e-01  0.0000000000000000e+00  3.7662933902693663e-01  3.7674480021993140e-01  3.7682431742213707e-01  3.7686600785155899e-01  3.7687280699843806e-01  3.7684414963419577e-01  3.7677918232604235e-01  0.0000000000000000e+00  4.0202983817290205e-01  4.0223428879433537e-01  4.0245763305705023e-01  4.0258847268666642e-01  4.0263438460937989e-01  4.3631615818952924e-01  4.3628395122698166e-01  4.3622761815856942e-01  4.3615459071331875e-01  4.3615947696096452e-01  0.0000000000000000e+00  3.7339235614490041e-01  3.7358205820184326e-01  3.7370518427192312e-01  3.7376151914596012e-01  3.7375455503036931e-01  3.7368278109536934e-01  3.7354401437535295e-01  0.0000000000000000e+00  4.3014185784777786e-01  4.3022548080366135e-01  4.3035499795168808e-01  4.3043628098217518e-01  4.3047895414364606e-01  4.6396723928380779e-01  4.6394061687475724e-01  4.6393390226776143e-01  4.6395763232032544e-01  4.6407566294999969e-01  0.0000000000000000e+00  3.7043327837910262e-01  3.7068042886291330e-01  3.7083735491180775e-01  3.7090547865519680e-01  3.7088847133287312e-01  3.7078397516739597e-01  3.7058878903535558e-01  0.0000000000000000e+00  4.5841064688651434e-01  4.5836626310477352e-01  4.5838945984713503e-01  4.5841301669521006e-01  4.5844819517355351e-01  4.9147788203444470e-01  4.9146309820943712e-01  4.9150912872581298e-01  4.9162799127595791e-01  4.9184782183772613e-01  0.0000000000000000e+00  3.6784522075187626e-01  3.6812772019429657e-01  3.6830563085321794e-01  3.6838173648312278e-01  3.6835957535781144e-01  3.6823611721730243e-01  3.6800766895911424e-01  0.0000000000000000e+00  4.8662420546647234e-01  4.8645978025136921e-01  4.8637393240130139e-01  4.8633749705265744e-01  4.8636171206252349e-01  5.1871094314959942e-01  5.1870395785564560e-01  5.1879231449912178e-01  5.1899329578691189e-01  5.1929613501764726e-01  0.0000000000000000e+00  3.6568323607142561e-01  3.6597585038993968e-01  3.6616050328696370e-01  3.6624066273668576e-01  3.6621915483671341e-01  3.6609230153886957e-01  3.6585682217642773e-01  0.0000000000000000e+00  5.1458739621295679e-01  5.1431176354782449e-01  5.1412744239371744e-01  5.1403567745665468e-01  5.1404676491233037e-01  5.4552576325258684e-01  5.4553297487145724e-01  5.4566694881695799e-01  5.4593960564091248e-01  5.4629423028796165e-01  0.0000000000000000e+00  3.6395868573910978e-01  3.6423761131472504e-01  3.6441626859024406e-01  3.6449597142949269e-01  3.6447870848441055e-01  3.6436258791869386e-01  3.6414607113738723e-01  0.0000000000000000e+00  5.4208239589612939e-01  5.4175772166808356e-01  5.4149702978466752e-01  5.4135883853363631e-01  5.4135553688201099e-01  5.7187538945078675e-01  5.7190024734605560e-01  5.7204834719965825e-01  5.7232051400767614e-01  5.7265932427625676e-01  0.0000000000000000e+00  3.6263779744278052e-01  3.6289167827038032e-01  3.6305193570119804e-01  3.6312759391511784e-01  3.6312073204974327e-01  3.6302890953909844e-01  3.6284873059060113e-01  0.0000000000000000e+00  5.6911056489870782e-01  5.6868843752718368e-01  5.6836537429148748e-01  5.6819750444846129e-01  5.6818199353527687e-01  5.9771811601667058e-01  5.9772744838408276e-01  5.9787424431000769e-01  5.9818985682139869e-01  5.9857372964629985e-01  0.0000000000000000e+00  3.6169875840694149e-01  3.6188446394561874e-01  3.6202156121274931e-01  3.6208581540771340e-01  3.6208335347346826e-01  3.6201878732897969e-01  3.6190624049987979e-01  0.0000000000000000e+00  5.9529585596098267e-01  5.9497270865481999e-01  5.9467135543652494e-01  5.9449836859852367e-01  5.9447138738977212e-01  6.2300350847453845e-01  6.2306349074654122e-01  6.2324116838582266e-01  6.2354020713725056e-01  6.2384732624017203e-01  0.0000000000000000e+00  3.6095411948276535e-01  3.6114929629582082e-01  3.6126960932305541e-01  3.6134239188599709e-01  3.6132390983741042e-01  3.6119638657355324e-01  3.6095899866302389e-01  0.0000000000000000e+00  6.2112477920688625e-01  6.2074176758234934e-01  6.2042751794134121e-01  6.2027239516737698e-01  6.2025101689459639e-01  6.4810728678352103e-01  6.4808831816191148e-01  6.4816306216787811e-01  6.4826801976609560e-01  6.4843844040894016e-01  0.0000000000000000e+00  3.6035061172147032e-01  3.6060016082304092e-01  3.6088647384143391e-01  3.6099196307288128e-01  3.6089002542253185e-01  3.6068598290801845e-01  3.6064163492032170e-01  0.0000000000000000e+00  6.4611453528043439e-01  6.4588662212154391e-01  6.4572593492501795e-01  6.4561597422768580e-01  6.4557200446283580e-01  6.7243104626862915e-01  6.7248682633068113e-01  6.7255796690742875e-01  6.7269226347517519e-01  6.7283173053943368e-01  0.0000000000000000e+00  0.0000000000000000e+00  0.0000000000000000e+00  0.0000000000000000e+00  0.0000000000000000e+00  0.0000000000000000e+00  0.0000000000000000e+00  0.0000000000000000e+00  0.0000000000000000e+00  6.7049949913345430e-01  6.7053730689493718e-01  6.7053909743491935e-01  6.7057851103225508e-01  6.7062340256743636e-01  6.9749164621401583e-01  6.9750835593069427e-01  6.9753749744141724e-01  6.9750831078614794e-01  6.9750948284011594e-01  0.0000000000000000e+00  0.0000000000000000e+00  0.0000000000000000e+00  0.0000000000000000e+00  0.0000000000000000e+00  0.0000000000000000e+00  0.0000000000000000e+00  0.0000000000000000e+00  0.0000000000000000e+00  6.9596958279368415e-01  6.9597973064470653e-01  6.9599013079676353e-01  6.9593659220758708e-01  6.9590763003588441e-01  7.2130612337578770e-01  7.2118742972630756e-01  7.2117432580797380e-01  7.2130036222063165e-01  7.2121117523881917e-01  0.0000000000000000e+00  0.0000000000000000e+00  0.0000000000000000e+00  0.0000000000000000e+00  0.0000000000000000e+00  0.0000000000000000e+00  0.0000000000000000e+00  0.0000000000000000e+00  0.0000000000000000e+00  7.2024335793657313e-01  7.2014850621462589e-01  7.2014208888753195e-01  7.2026927065693469e-01  7.2018156784228404e-01  7.4529798187773144e-01  7.4607268557364081e-01  7.4673738568472392e-01  7.4704815827741289e-01  7.4761570268811173e-01  0.0000000000000000e+00  0.0000000000000000e+00  0.0000000000000000e+00  0.0000000000000000e+00  0.0000000000000000e+00  0.0000000000000000e+00  0.0000000000000000e+00  0.0000000000000000e+00  0.0000000000000000e+00  7.4482729030725581e-01  7.4557699004377742e-01  7.4621875138072080e-01  7.4651178153573683e-01  7.4706030390635292e-01  7.7217500016395579e-01  7.7117472375481033e-01  7.7024313491397323e-01  7.7072716628659343e-01  7.7030669181965372e-01  0.0000000000000000e+00  0.0000000000000000e+00  0.0000000000000000e+00  0.0000000000000000e+00  0.0000000000000000e+00  0.0000000000000000e+00  0.0000000000000000e+00  0.0000000000000000e+00  0.0000000000000000e+00  7.7221379276054614e-01  7.7117299157057051e-01  7.7024463512048957e-01  7.7072751054503874e-01  7.7029180214248361e-01  </DataArray> 
</PointData> 
</Piece>
</UnstructuredGrid>
</VTKFile>