<?xml version="1.0"?>
<VTKFile type="UnstructuredGrid"  version="0.1"  >
<UnstructuredGrid>
<Piece  NumberOfPoints="589" NumberOfCells="1080">
<Points>
<DataArray  type="Float64"  NumberOfComponents="3"  format="ascii">-9 0 0  -8 0 0  -7 0 0  -6 0 0  -5 0 0  -4 0 0  -3 0 0  -2 0 0  -1 0 0  0 0 0  1 0 0  2 0 0  3 0 0  4 0 0  5 0 0  6 0 0  7 0 0  8 0 0  9 0 0  -9 2 0  -8.000007806792839 1.999987927176401 0  -7.000016386754906 1.999977371379997 0  -6.000027583209655 1.999969567981287 0  -5.000045630287146 1.999965069710449 0  -4.000026690895456 1.999973790652443 0  -3.000007232462358 1.999982224951887 0  -1.999997809956937 1.999990208842501 0  -0.9999963852350281 1.999996517338535 0  5.32105036746152e-08 1.999999262722606 0  0.9999961700549521 1.999997280244108 0  1.999996509772656 1.999991024084581 0  3.00000413653694 1.999983346818562 0  4.000020029864645 1.999975090144915 0  5.000043147735943 1.999971567957262 0  6.000026151342636 1.999972810299314 0  7.000015608210966 1.999979049043143 0  8.000007468889736 1.99998866455356 0  9 2 0  -9.000000000004983 4 0  -8.000012520728706 3.999969787082482 0  -7.000022307596614 3.999943733790237 0  -6.000027763842334 3.999925915790459 0  -5.000029228117568 3.999920220951655 0  -4.000001417317848 3.999924245615104 0  -2.999982805267916 3.999948222298106 0  -1.999978078451609 3.999979492271278 0  -0.9999854023654779 4.000004655039241 0  7.263551810637078e-07 4.000014735996871 0  0.9999865907719553 4.000006614979303 0  1.999978384725208 3.999984886140018 0  2.999982320458272 3.999955468594944 0  4.000000307747123 3.999925777701463 0  5.000027823739111 3.999915490449604 0  6.000026489436476 3.999925635590919 0  7.000021600930795 3.999944591977593 0  8.000012255670605 3.999970450352087 0  9 4 0  -9 6 0  -8.000028169043439 5.999935012668725 0  -7.000045550847338 5.999877158911032 0  -6.000043912321241 5.999833774721369 0  -5.00002088510797 5.999811902175041 0  -3.999966285372573 5.999847454919204 0  -2.9999414981943 5.999921982599503 0  -1.999951393906555 6.000000164076351 0  -0.9999760029082502 6.000043661700229 0  -9.673227601272339e-07 6.000052318792816 0  0.9999765209161325 6.000038021867781 0  1.999959324996695 5.999998583748442 0  2.999952872150439 5.999931941940861 0  3.999965909689088 5.999862729371756 0  5.000012926976706 5.99982814231172 0  6.00004104428767 5.999843219587823 0  7.000045419472595 5.999882531209333 0  8.000028682344499 5.999937475099403 0  9 6 0  -9 8 0  -8.00008695404717 7.999871723558861 0  -7.000144867969496 7.999752726686259 0  -6.000145611027532 7.999655607836672 0  -5.000065097117034 7.999601125260608 0  -3.999959305194599 7.999765870839681 0  -2.999978616672146 7.999959549016078 0  -2.000018191903902 8.000054073399941 0  -1.000021567680916 8.00006502366338 0  1.997630878545475e-06 8.000068253092655 0  1.000019487251355 8.000077841129334 0  2.000011895655226 8.000037864633979 0  2.999965319571891 7.999969884816102 0  3.999949405202529 7.999801619775949 0  5.000054137064741 7.99961170292065 0  6.00015055251165 7.999663895519403 0  7.00015366975093 7.99975796385052 0  8.000092874809551 7.999874192825998 0  9 8 0  -9 10 0  -8.000261801473233 9.999771395205793 0  -7.000472763331326 9.999540904798586 0  -6.000572236576362 9.999307098022788 0  -5.000475722405429 9.999069631956786 0  -4.000308071934462 9.999601566674714 0  -3.000335171730326 10.00005899344455 0  -2.000267008239228 9.999980684701994 0  -1.000119668417535 9.999955544072636 0  -1.091097365651223e-05 9.999949388539127 0  1.000097165899715 9.999949795398161 0  2.000241405627056 9.999946654585139 0  3.000367910910394 10.00011283229699 0  4.000351350326066 9.999673415965098 0  5.00054406982706 9.999093468813889 0  6.000633038941471 9.999317234502723 0  7.000517432999857 9.999544846744415 0  8.000285297784114 9.999772656623191 0  9 10 0  -9 12 0  -8.00063955291516 11.99967877803915 0  -7.001245870541212 11.99934263316628 0  -6.001781376023001 11.99897372169096 0  -5.002199394979653 11.99854717311436 0  -4.002113758975529 11.99951680560602 0  -3.002190881247512 12.00047663283304 0  -2.001495623063072 12.00036173014099 0  -1.000723527673725 12.00030024085211 0  7.727013518546746e-05 12.00028956421441 0  1.000885171549811 12.00033182371571 0  2.001681717918152 12.00043891785845 0  3.00243023227924 12.00064050547799 0  4.002345772623882 11.999584259657 0  5.002401969584837 11.99851912295651 0  6.00193276430246 11.99895557106856 0  7.00134678184527 11.99933117469642 0  8.000690045674789 11.99967313243359 0  9 12 0  -9 14 0  -8.00114930809486 13.99964604323218 0  -7.002300724692079 13.99927575819089 0  -6.003457891394079 13.99887137639145 0  -5.004628343579976 13.99841230242795 0  -4.004640678855655 13.99954485420005 0  -3.004647282208548 14.00069164763979 0  -2.003033359078547 14.0005294742537 0  -1.001442957187355 14.0004419991381 0  0.0001372929831975268 14.00041828599982 0  1.001720027720137 14.00045487302298 0  2.003316844471717 14.00055372600803 0  3.004936677435018 14.00072018092693 0  4.004948175905231 13.99954264646216 0  5.004956207671005 13.99837223363564 0  6.003697265450327 13.9988380498887 0  7.002457778069424 13.99925254380335 0  8.001227178072888 13.9996342199099 0  9 14 0  -9 16 0  -8.00164935127456 15.99967874844024 0  -7.003330471631871 15.99934553938297 0  -6.005077871090795 15.99898820512195 0  -5.006931622370016 15.99859434415985 0  -4.006998119719401 15.9995586719346 0  -3.006935163004895 16.00051780408789 0  -2.004480340687651 16.00039946376635 0  -1.002123220772154 16.00032954801021 0  0.0001874704615202253 16.00030656693011 0  1.002500163240046 16.00032960885061 0  2.004863263071853 16.00039887786638 0  3.00732824080992 16.00051544805454 0  4.007398083399612 15.99951190561987 0  5.007336876860534 15.99850753256658 0  6.005379994342086 15.99892634394502 0  7.003530825972753 15.99930555198555 0  8.00174918901638 15.99965908559581 0  9 16 0  -9 18 0  -8.002020965780822 17.99975931685482 0  -7.004092687499676 17.99951195595981 0  -6.006268554214878 17.99925135825413 0  -5.008607183768266 17.99897122412473 0  -4.008707538010624 17.99956156650915 0  -3.008610541104471 18.00015105653624 0  -2.005540799935294 18.00007661203416 0  -1.00261975697103 18.00003025007008 0  0.0002295994586096291 18.00001163886031 0  1.003080545895406 18.00002030148042 0  2.006006256186399 18.00005565562832 0  3.009083391141438 18.00011686920592 0  4.00918584778425 17.99948903011617 0  5.009088219996065 17.99886291893143 0  6.006627338233034 17.99917339187485 0  7.004330899650461 17.99946146775754 0  8.002139776837035 17.99973450567273 0  9 18 0  -9 20 0  -8.002188308267741 19.99986657612763 0  -7.004435847614255 19.99973135429731 0  -6.006804109348766 19.99959273352193 0  -5.009359103453457 19.999449497127 0  -4.009473607575901 19.99956134581426 0  -3.009360201148741 19.9996722265681 0  -2.006011314772652 19.99964206606988 0  -1.002831833962516 19.99962060634826 0  0.0002653020324163018 19.99960827150649 0  1.003364007009391 19.9996048638903 0  2.006548172330201 19.99960958617696 0  3.009904804101709 19.99962098666353 0  4.010020774169458 19.99947777614261 0  5.009906375431986 19.99933570660516 0  6.007212240331134 19.9995101270077 0  7.00470683017395 19.99967758365788 0  8.002323469049605 19.99984008049996 0  8.999999999988367 19.9999999999934 0  -9 22 0  -8.002117567996853 21.99998100517077 0  -7.00429364874876 21.99996434616391 0  -6.0065885966898 21.99995258114891 0  -5.00906642981394 21.99994871812616 0  -4.009178534318891 21.99955657525237 0  -3.009067048462914 21.99916332800584 0  -2.005809139534489 21.99917293099837 0  -1.002716845027078 21.99917469755083 0  0.0002947429608358938 21.99916943063776 0  1.003307968535968 21.99915712555543 0  2.006405177543352 21.99913698523413 0  3.009671286665764 21.9991074052579 0  4.009783218068941 21.99947432497528 0  5.009668713608026 21.99984182032926 0  6.007037750072961 21.99987470226158 0  7.004591861619671 21.99991351336216 0  8.002266303482209 21.9999559147069 0  9 22 0  -9 24 0  -8.001811577587096 24.00008609453416 0  -7.003673445243045 24.00017776522083 0  -6.005637323269709 24.00028081756671 0  -5.00775767987959 24.00040153393934 0  -4.007854304167909 23.99954737586309 0  -3.007759171901061 23.99869218486345 0  -2.00494931031833 23.99873495125278 0  -1.002281241244414 23.99875674385424 0  0.000317759550191904 23.99875856277704 0  1.002918473251384 23.99874053595875 0  2.005591694143867 23.99870192413185 0  3.008410188318412 23.99864111482892 0  4.008504041983386 23.99947652915767 0  5.00840315800536 24.00031219058286 0  6.006118655935449 24.00021552729476 0  7.00399300884962 24.00013505567739 0  8.001970954360349 24.00006498542498 0  9 24 0  -9 26 0  -8.001303050234169 26.00016890671793 0  -7.002642497658467 26.00034567561225 0  -6.004055756354494 26.00053840277309 0  -5.005582052813458 26.00075567103259 0  -4.005653198742365 25.99953426113442 0  -3.005585295033759 25.9983120143506 0  -2.003526950074685 25.99838042577741 0  -1.001571465306164 25.99841825022672 0  0.000334126178766179 25.99842663872366 0  1.0022414746563 25.99840583650458 0  2.004202245638549 25.99835518414514 0  3.006269454392691 25.99827311482333 0  4.006334821683415 25.99948241560648 0  5.006258059329714 26.0006917297347 0  6.004559879603449 26.00049157825094 0  7.00297720336311 26.00031499748359 0  8.001469982388901 26.00015372877894 0  9 26 0  -9 28 0  -8.000647331118227 28.00022030087577 0  -7.001313388801077 28.00044977421203 0  -6.002017482644121 28.0006978307755 0  -5.002779784319939 28.0009743661897 0  -4.002818581656922 27.99951841732418 0  -3.002785022015829 27.99806197627108 0  -2.001697698916491 27.99814778742198 0  -1.000664177258584 27.99819703389971 0  0.0003436673313346619 27.99821100303049 0  1.001353271676822 27.99819005254823 0  2.002392084967568 27.99813361120434 0  3.003488269405949 27.99804017719915 0  4.003518508899005 27.9994906395001 0  5.003473279290075 28.00094103021722 0  6.002534713922542 28.00067336977951 0  7.001656831832652 28.00043372360689 0  8.00081863
[...]
<PointData  Scalars="f_44-1"> 
<DataArray  type="Float64"  Name="f_44-1"  format="ascii">1.4298767747999812e-03  1.1363396278353192e-06  4.5125095600852524e-05  4.8471514829277182e-05  -1.2589425189479845e-03  0.0000000000000000e+00  0.0000000000000000e+00  0.0000000000000000e+00  0.0000000000000000e+00  0.0000000000000000e+00  0.0000000000000000e+00  0.0000000000000000e+00  0.0000000000000000e+00  0.0000000000000000e+00  1.4354113418447217e-03  3.1815193433036786e-06  4.7380626007876738e-05  4.1154293882829990e-05  -1.2695123645590622e-03  8.9459705860160776e-02  8.9475427935308535e-02  8.9294473840378266e-02  8.9004744761217572e-02  8.8877060310950190e-02  0.0000000000000000e+00  0.0000000000000000e+00  0.0000000000000000e+00  0.0000000000000000e+00  0.0000000000000000e+00  0.0000000000000000e+00  0.0000000000000000e+00  0.0000000000000000e+00  0.0000000000000000e+00  8.9354783769553872e-02  8.9362237765337152e-02  8.9172977514548987e-02  8.8881531477663242e-02  8.8750359572986159e-02  1.7853080074181682e-01  1.7851051091181022e-01  1.7846485532076992e-01  1.7842486786259243e-01  1.7844353166906976e-01  0.0000000000000000e+00  0.0000000000000000e+00  0.0000000000000000e+00  0.0000000000000000e+00  0.0000000000000000e+00  0.0000000000000000e+00  0.0000000000000000e+00  0.0000000000000000e+00  0.0000000000000000e+00  1.7827526705561653e-01  1.7828080567639193e-01  1.7825576223538137e-01  1.7821853372935612e-01  1.7822939560225440e-01  2.6774060849033615e-01  2.6774237668202755e-01  2.6775230649079695e-01  2.6776669969050920e-01  2.6776108179745656e-01  0.0000000000000000e+00  0.0000000000000000e+00  0.0000000000000000e+00  0.0000000000000000e+00  0.0000000000000000e+00  0.0000000000000000e+00  0.0000000000000000e+00  0.0000000000000000e+00  0.0000000000000000e+00  2.6739397605907400e-01  2.6738837123966736e-01  2.6739625810587242e-01  2.6740482922734093e-01  2.6741295856660141e-01  3.5699778706062596e-01  3.5698192778358684e-01  3.5692249078715776e-01  3.5679388178390986e-01  3.5671185476537337e-01  0.0000000000000000e+00  0.0000000000000000e+00  0.0000000000000000e+00  0.0000000000000000e+00  0.0000000000000000e+00  0.0000000000000000e+00  0.0000000000000000e+00  0.0000000000000000e+00  0.0000000000000000e+00  3.5644604114832568e-01  3.5652939836748671e-01  3.5656581170056195e-01  3.5658890552523603e-01  3.5660261981842234e-01  4.4636487436822153e-01  4.4634892297284184e-01  4.4630723294825642e-01  4.4628407613166804e-01  4.4626732212673287e-01  0.0000000000000000e+00  1.4009268553824150e+00  1.4007898651510862e+00  1.4008097164111595e+00  1.4007619063862666e+00  1.4008244373831085e+00  1.4008734950036137e+00  1.4002506231015797e+00  0.0000000000000000e+00  4.4571093133235745e-01  4.4575296261734421e-01  4.4578223782768239e-01  4.4581913564375175e-01  4.4583815751462669e-01  5.3584515332934035e-01  5.3581893329547003e-01  5.3573725525386062e-01  5.3561558896331940e-01  5.3537977319811403e-01  0.0000000000000000e+00  1.4008959733454140e+00  1.4007441064372952e+00  1.4006505294726959e+00  1.4006074666033661e+00  1.4006571930381986e+00  1.4007468385107209e+00  1.4010746295874155e+00  0.0000000000000000e+00  5.3473509568890154e-01  5.3491123343100011e-01  5.3506050720879383e-01  5.3514250101349825e-01  5.3517302074991413e-01  6.2555863975333292e-01  6.2551925188557367e-01  6.2537679129921175e-01  6.2513778380207619e-01  6.2476022060594227e-01  0.0000000000000000e+00  1.4007998017101215e+00  1.4004368272379855e+00  1.4001999999805004e+00  1.4001279016211998e+00  1.4001996443507791e+00  1.4004134842863769e+00  1.4007569401636399e+00  0.0000000000000000e+00  6.2388235808811199e-01  6.2427730521086899e-01  6.2454015969989607e-01  6.2469882115259434e-01  6.2474614137355999e-01  7.1569093571660891e-01  7.1563875996142101e-01  7.1543144296371386e-01  7.1506893341601896e-01  7.1451476740187936e-01  0.0000000000000000e+00  1.3999987314446127e+00  1.3994821984023191e+00  1.3991758158142427e+00  1.3990770191456303e+00  1.3991798917404099e+00  1.3994862741737948e+00  1.4000228183504089e+00  0.0000000000000000e+00  7.1347319475700133e-01  7.1406752129499129e-01  7.1447259321059708e-01  7.1470316221795205e-01  7.1476467156162948e-01  8.0643654906883344e-01  8.0637556641417485e-01  8.0611845141476746e-01  8.0566224585590929e-01  8.0498220929411191e-01  0.0000000000000000e+00  1.3983635992142374e+00  1.3977184038214878e+00  1.3973365619286680e+00  1.3972125950626808e+00  1.3973420875715441e+00  1.3977272539696495e+00  1.3983875220916033e+00  0.0000000000000000e+00  8.0388420771956148e-01  8.0460092291790042e-01  8.0509123220234668e-01  8.0536952149307151e-01  8.0543948482256256e-01  8.9794457214159329e-01  8.9788105607123292e-01  8.9760101804222558e-01  8.9710136361664605e-01  8.9637047675864967e-01  0.0000000000000000e+00  1.3956031728470846e+00  1.3948979826640413e+00  1.3944860730175972e+00  1.3943540634852394e+00  1.3944973520671657e+00  1.3949200137480158e+00  1.3956381619818286e+00  0.0000000000000000e+00  8.9526484888931956e-01  8.9603069918303102e-01  8.9655509044509263e-01  8.9685068682897584e-01  8.9692179361602931e-01  9.9028418141102692e-01  9.9022507092134149e-01  9.8995332324395469e-01  9.8946706522639349e-01  9.8876732634888542e-01  0.0000000000000000e+00  1.3916247617723538e+00  1.3909366034335444e+00  1.3905384139046788e+00  1.3904117896539261e+00  1.3905537182918952e+00  1.3909693186407666e+00  1.3916694982415410e+00  0.0000000000000000e+00  9.8769619182015167e-01  9.8842669234971992e-01  9.8892761947174013e-01  9.8920861063925858e-01  9.8927389771157892e-01  1.0834309247245522e+00  1.0833826960015369e+00  1.0831496570144457e+00  1.0827317895849424e+00  1.0821416417119722e+00  0.0000000000000000e+00  1.3864556873169076e+00  1.3858604772478582e+00  1.3855198962267001e+00  1.3854131688417841e+00  1.3855388840173644e+00  1.3859024466121750e+00  1.3865083805834695e+00  0.0000000000000000e+00  1.0811356541070696e+00  1.0817509412833279e+00  1.0821733287527442e+00  1.0824091916606249e+00  1.0824621421076430e+00  1.1772687911690922e+00  1.1772366057300421e+00  1.1770680355996230e+00  1.1767650928275566e+00  1.1763501430475527e+00  0.0000000000000000e+00  1.3802561675823386e+00  1.3798195650682745e+00  1.3795743405520153e+00  1.3794997668145534e+00  1.3795961101655838e+00  1.3798685268897770e+00  1.3803148274921768e+00  0.0000000000000000e+00  1.1754276513366755e+00  1.1758616509455926e+00  1.1761600576134084e+00  1.1763256271523967e+00  1.1763611419576028e+00  1.2716040480616080e+00  1.2715911796923141e+00  1.2715053335401649e+00  1.2713504142710812e+00  1.2711562877280109e+00  0.0000000000000000e+00  1.3732992705644733e+00  1.3730691872013394e+00  1.3729465061023236e+00  1.3729128046352519e+00  1.3729699564669555e+00  1.3731223973859132e+00  1.3733614187902721e+00  0.0000000000000000e+00  1.2703247553676729e+00  1.2705319403479964e+00  1.2706750502602846e+00  1.2707532154919103e+00  1.2707682195132834e+00  1.3661878902194375e+00  1.3661954033947163e+00  1.3662012083216259e+00  1.3662107479679846e+00  1.3662585859836411e+00  0.0000000000000000e+00  1.3659403712181402e+00  1.3659420558863995e+00  1.3659557173628918e+00  1.3659671550183796e+00  1.3659796370174073e+00  1.3659964947193557e+00  1.3660033098944511e+00  0.0000000000000000e+00  1.3655160390194085e+00  1.3654758557887940e+00  1.3654495252563463e+00  1.3654328679229748e+00  1.3654266124077681e+00  1.4607445588097177e+00  1.4607712268355411e+00  1.4608674857102932e+00  1.4610398532705564e+00  1.4613244130795782e+00  0.0000000000000000e+00  1.3585788170513999e+00  1.3588123806768155e+00  1.3589613970991179e+00  1.3590173362638824e+00  1.3589845394867146e+00  1.3588649478151094e+00  1.3586398139608344e+00  0.0000000000000000e+00  1.4606615308766684e+00  1.4603801362490780e+00  1.4601885547301927e+00  1.4600799485334190e+00  1.4600540396965056e+00  1.5550016472848740e+00  1.5550441560906565e+00  1.5552198365894609e+00  1.5555357737805720e+00  1.5560261354877603e+00  0.0000000000000000e+00  1.3516150692882463e+00  1.3520555212680541e+00  1.3523242145911782e+00  1.3524191687836253e+00  1.3523453908772993e+00  1.3521032466921705e+00  1.3516715470344201e+00  0.0000000000000000e+00  1.5554286114786258e+00  1.5549379956006237e+00  1.5546030517645810e+00  1.5544152159870550e+00  1.5543733830759672e+00  1.6487199248328288e+00  1.6487732440975056e+00  1.6490086538005952e+00  1.6494332503648148e+00  1.6500759774267246e+00  0.0000000000000000e+00  1.3454073776342932e+00  1.3460071527397748e+00  1.3463667339264349e+00  1.3464909175008168e+00  1.3463848911887888e+00  1.3460473858666151e+00  1.3454570747659849e+00  0.0000000000000000e+00  1.6495271233927993e+00  1.6488817484565714e+00  1.6484406065885908e+00  1.6481946511337076e+00  1.6481422943056163e+00  1.7417177551563816e+00  1.7417757379794083e+00  1.7420447024360250e+00  1.7425316833436020e+00  1.7432567673539372e+00  0.0000000000000000e+00  1.3402321063842544e+00  1.3409260825619191e+00  1.3413376234967158e+00  1.3414779551367146e+00  1.3413519268273619e+00  1.3409567008777352e+00  1.3402733356162952e+00  0.0000000000000000e+00  1.7427404709441923e+00  1.7420112414924613e+00  1.7415121373407068e+00  1.7412352423820661e+00  1.7411787800848835e+00  1.8338938220313563e+00  1.8339499142464484e+00  1.8342231077984386e+00  1.8347198289766127e+00  1.8354486639340024e+00  0.0000000000000000e+00  1.3362523233473187e+00  1.3369646270259818e+00  1.3373834523332710e+00  1.3375252036609573e+00  1.3373936555555135e+00  1.3369843691745866e+00  1.3362836197237822e+00  0.0000000000000000e+00  1.8349488605639579e+00  1.8342145886108545e+00  1.8337118975869895e+00  1.8334339843903411e+00  1.8333800386277439e+00  1.9252275892414792e+00  1.9252758131116057e+00  1.9255251674765543e+00  1.9259805034200577e+00  1.9266348448391735e+00  0.0000000000000000e+00  1.3334961863596191e+00  1.3341514385277775e+00  1.3345333612098278e+00  1.3346614795057417e+00  1.3345377474063833e+00  1.3341579233578091e+00  1.3335165260956345e+00  0.0000000000000000e+00  1.9261395935553229e+00  1.9254826025268408e+00  1.9250277422525692e+00  1.9247774724023070e+00  1.9247317697784123e+00  2.0157959939598631e+00  2.0158347106005468e+00  2.0160340957438598e+00  2.0163952800245850e+00  2.0169019288183470e+00  0.0000000000000000e+00  1.3318579808417363e+00  1.3323908005116365e+00  1.3326947769149924e+00  1.3327965737255141e+00  1.3326978956818436e+00  1.3323927364575605e+00  1.3318788146496467e+00  0.0000000000000000e+00  2.0164390160820416e+00  2.0159024124383804e+00  2.0155392584895533e+00  2.0153395892664330e+00  2.0153063811406970e+00  2.1057246652895718e+00  2.1057464027418429e+00  2.1058866143158648e+00  2.1061746307887992e+00  2.1065568511049211e+00  0.0000000000000000e+00  1.3311238392065374e+00  1.3314646934861989e+00  1.3316771729532193e+00  1.3317481031761860e+00  1.3316755545442647e+00  1.3314384837581741e+00  1.3310769969940199e+00  0.0000000000000000e+00  2.1059585773915064e+00  2.1056459776549192e+00  2.1054026081958690e+00  2.1052683385110607e+00  2.1052483659038623e+00  2.1951986764073999e+00  2.1952141305217703e+00  2.1953067281638097e+00  2.1954618175895559e+00  2.1955884644690249e+00  0.0000000000000000e+00  1.3308063785777231e+00  1.3311340423883986e+00  1.3312231995871091e+00  1.3312724541518917e+00  1.3312290967399949e+00  1.3311353913812445e+00  1.3309827736808930e+00  0.0000000000000000e+00  2.1952114455999037e+00  2.1949586027915662e+00  2.1948268964685895e+00  2.1947547617571104e+00  2.1947483213177241e+00  2.2844164028629406e+00  2.2844125034815126e+00  2.2844337644807422e+00  2.2844327868227863e+00  2.2844684652419245e+00  0.0000000000000000e+00  1.3316338334516231e+00  1.3310101109807788e+00  1.3310592477462795e+00  1.3311212576048619e+00  1.3310737156114045e+00  1.3310934249403312e+00  1.3309574451139803e+00  0.0000000000000000e+00  2.2839064399843845e+00  2.2839970512136807e+00  2.2840087422550059e+00  2.2840075202320018e+00  2.2840080085939212e+00  2.3734962466415763e+00  2.3735182039389322e+00  2.3735109879196323e+00  2.3735095251139589e+00  2.3735456029291409e+00  0.0000000000000000e+00  0.0000000000000000e+00  0.0000000000000000e+00  0.0000000000000000e+00  0.0000000000000000e+00  0.0000000000000000e+00  0.0000000000000000e+00  0.0000000000000000e+00  0.0000000000000000e+00  2.3731245970362926e+00  2.3731627370876982e+00  2.3731779546324243e+00  2.3731953238400023e+00  2.3732202016995929e+00  2.4627538200141204e+00  2.4627140334802493e+00  2.4627183109040298e+00  2.4627353314792626e+00  2.4626949457613625e+00  0.0000000000000000e+00  0.0000000000000000e+00  0.0000000000000000e+00  0.0000000000000000e+00  0.0000000000000000e+00  0.0000000000000000e+00  0.0000000000000000e+00  0.0000000000000000e+00  0.0000000000000000e+00  2.4625388232427250e+00  2.4624891872120145e+00  2.4625038251169888e+00  2.4625350729095929e+00  2.4625145061582763e+00  2.5515657139203660e+00  2.5515421225600181e+00  2.5515793205763679e+00  2.5515077801714310e+00  2.5514479132692558e+00  0.0000000000000000e+00  0.0000000000000000e+00  0.0000000000000000e+00  0.0000000000000000e+00  0.0000000000000000e+00  0.0000000000000000e+00  0.0000000000000000e+00  0.0000000000000000e+00  0.0000000000000000e+00  2.5514345681376436e+00  2.5514170903059052e+00  2.5514541740637919e+00  2.5513878097126828e+00  2.5513376214751347e+00  2.6404244736301576e+00  2.6410633650325894e+00  2.6413176422317188e+00  2.6416521127997679e+00  2.6422606195509588e+00  0.0000000000000000e+00  0.0000000000000000e+00  0.0000000000000000e+00  0.0000000000000000e+00  0.0000000000000000e+00  0.0000000000000000e+00  0.0000000000000000e+00  0.0000000000000000e+00  0.0000000000000000e+00  2.6404240653978328e+00  2.6410238135163451e+00  2.6412578786388115e+00  2.6415730025678208e+00  2.6421559030662145e+00  2.7338642095117009e+00  2.7299860337011363e+00  2.7294153342198548e+00  2.7299607696371395e+00  2.7278075347555144e+00  0.0000000000000000e+00  0.0000000000000000e+00  0.0000000000000000e+00  0.0000000000000000e+00  0.0000000000000000e+00  0.0000000000000000e+00  0.0000000000000000e+00  0.0000000000000000e+00  0.0000000000000000e+00  2.7338334319286095e+00  2.7299925914560719e+00  2.7294199235438006e+00  2.7299604142787337e+00  2.7278297800467470e+00  </DataArray> 
</PointData> 
</Piece>
</UnstructuredGrid>
</VTKFile>