<?xml version="1.0"?>
<VTKFile type="UnstructuredGrid"  version="0.1"  >
<UnstructuredGrid>
<Piece  NumberOfPoints="589" NumberOfCells="1080">
<Points>
<DataArray  type="Float64"  NumberOfComponents="3"  format="ascii">-9 0 0  -8 0 0  -7 0 0  -6 0 0  -5 0 0  -4 0 0  -3 0 0  -2 0 0  -1 0 0  0 0 0  1 0 0  2 0 0  3 0 0  4 0 0  5 0 0  6 0 0  7 0 0  8 0 0  9 0 0  -9 2 0  -7.999997366912986 2.000003401621172 0  -6.999994547696527 2.000006398724139 0  -5.9999910672868 2.000008664058798 0  -4.99998580646303 2.000010056140853 0  -3.999991211344535 2.000007438334068 0  -2.999996719737374 2.000005038019104 0  -1.999999440814531 2.000002814763944 0  -0.9999999682009788 2.000001034133421 0  9.080849094422369e-07 2.00000017396344 0  1.000001992093153 2.000000500959647 0  2.00000216266214 2.00000184785298 0  3.000000720650733 2.000003422663571 0  3.999997584331547 2.00000482752825 0  4.999993251739994 2.000004502542716 0  5.999996322879541 2.000004822901048 0  6.999997943990208 2.000003920407093 0  7.999999040766101 2.000002176054364 0  9 2 0  -9.000000000004983 4 0  -7.999995478320847 4.00000842137812 0  -6.999991740160424 4.00001572457039 0  -5.999989256222112 4.000020821154497 0  -4.999987968900254 4.000022688151701 0  -3.999995582957816 4.000021233864612 0  -3.000000658075415 4.000014553609112 0  -2.00000198958358 4.000005962784359 0  -1.000000079606688 3.999999006335024 0  3.602409840358702e-06 3.999995992851535 0  1.00000743578439 3.999997564014088 0  2.000009895446023 4.000002409862862 0  3.000009485451768 4.000008893303706 0  4.00000577427352 4.000014966766969 0  4.999999784579298 4.0000154893819 0  5.999998445881277 4.000014537227662 0  6.999997985322872 4.000011208281849 0  7.999998631694567 4.00000607895094 0  9 4 0  -9 6 0  -7.999990455538577 6.000017914168637 0  -6.999983915718719 6.000033877114255 0  -5.999982658700711 6.00004589684482 0  -4.999987301257996 6.000052106921033 0  -4.00000188118595 6.000041976184326 0  -3.000008364243919 6.000021501293353 0  -2.000005368093801 6.000000200245508 0  -0.9999985627753395 5.999988526870399 0  8.082799259562495e-06 5.999986014748096 0  1.00001388099612 5.99998916818645 0  2.0000182882069 5.999998236447298 0  3.00002018315358 6.000013607955826 0  4.00001745684155 6.000029159829994 0  5.000006390568497 6.000035808403596 0  5.999997056292724 6.000033758917017 0  6.999993598876072 6.000025697900715 0  7.999995334816908 6.000013780510305 0  9 6 0  -9 8 0  -7.999973413337525 8.000035213172163 0  -6.999954959567586 8.000067803912268 0  -5.999952462652263 8.0000942124784 0  -4.999972459966715 8.000108584626998 0  -4.0000010113384 8.00006291661999 0  -2.999994364659607 8.00000962583445 0  -1.999982491910316 7.999984467336108 0  -0.9999810736711173 7.999982636585798 0  1.259997890834612e-05 7.99998226350271 0  1.000007565072161 7.999979716616235 0  2.000008971084214 7.999988613775572 0  3.000020377858295 8.000003837927634 0  4.000024338683284 8.000043449523417 0  4.999998822990301 8.000088386541776 0  5.999972158331089 8.000077028348615 0  6.99996843804209 8.000055614195414 0  7.999980320213328 8.000028935397131 0  9 8 0  -9 10 0  -7.999923832657382 10.00006300739673 0  -6.999862168708148 10.00012646790068 0  -5.999832283268758 10.00019068774697 0  -4.999858127090989 10.0002556397129 0  -3.999904221158156 10.00010613059995 0  -2.999894267528678 9.999978213188131 0  -1.999911616619224 10.00000353232111 0  -0.9999518380266094 10.00001172274309 0  1.947319058560057e-05 10.00001371736862 0  0.9999915866383678 10.00001324651691 0  1.999955130356774 10.00001276998701 0  2.999922169999816 9.999969577194316 0  3.99992563653871 10.00007484238931 0  4.999879371596669 10.00021438773736 0  5.999855470819076 10.00016053052889 0  6.999880860022371 10.00010659391261 0  7.999934110545881 10.00005311966201 0  9 10 0  -9 12 0  -7.999816205698828 12.00008900123514 0  -6.999642210525477 12.00018211495975 0  -5.999489083910618 12.00028427041524 0  -4.999370450961386 12.00040237686338 0  -3.999394424051624 12.00012642048739 0  -2.99937055725684 11.99985281135799 0  -1.999545016301089 11.99988982063875 0  -0.9997433772385622 11.99991194216611 0  4.817943031992635e-05 11.99992005613288 0  0.9998355028638899 11.9999139097276 0  1.999622943578101 11.99989073783001 0  2.999418742653792 11.99984329979424 0  3.999438110328295 12.00009519381678 0  4.999426640758887 12.0003488604222 0  5.999541566671546 12.00024436995093 0  6.999681808874235 12.00015573614298 0  7.999837328497009 12.00007589290542 0  9 12 0  -9 14 0  -7.999669313499432 14.00009855902177 0  -6.99933866804807 14.00020161920134 0  -5.999007721639249 14.00031408427909 0  -4.998675013626315 14.00044164561432 0  -3.998671970101546 14.00011429551897 0  -2.998667661971484 13.99978258227208 0  -1.999082938120938 13.99983568499971 0  -0.9994946540707839 13.99986821420477 0  9.381245470997561e-05 13.99988345514557 0  0.9996790170869648 13.99988269662079 0  1.999257470189236 13.99986579948063 0  2.998826034228374 13.99983174676436 0  3.998821000857576 14.0001033109269 0  4.998821737961186 14.00037274340321 0  5.999126274803782 14.00026482230139 0  6.999421577416607 14.00016973931791 0  7.999711895709003 14.00008287725805 0  9 14 0  -9 16 0  -7.999522161793028 16.00009012166849 0  -6.999036172813872 16.00018352367831 0  -5.998533154578246 16.00028354261142 0  -4.998002661889989 16.00039356094735 0  -3.997984701827109 16.00010660116059 0  -2.997999759362019 15.99982088060961 0  -1.998635337177781 15.99986391348774 0  -0.9992467761064873 15.99989369499525 0  0.0001524738930992044 15.999910901089 0  0.999549612117769 15.99991608468715 0  1.998931734326415 15.99990952901313 0  2.998285033605959 15.99989131096112 0  3.99826572556609 16.0001088977869 0  4.998283451084261 16.00032644418805 0  5.998747715074085 16.00023394731575 0  6.999181161455397 16.00015087628952 0  7.999595247988722 16.00007393130432 0  9 16 0  -9 18 0  -7.999407510218808 18.00006856556211 0  -6.998801613988602 18.00013897020886 0  -5.998168196063709 18.00021301858654 0  -4.9974916950839 18.0002924262179 0  -3.997464295014529 18.00010278950388 0  -2.997488702226138 17.99991315959382 0  -1.998284585787335 17.99994520529278 0  -0.9990418020761368 17.99996953437704 0  0.0002195557311602056 17.99998649261678 0  0.9994803624760289 17.99999648333456 0  1.99872151524209 17.99999995832149 0  2.997923012713621 17.99999745645481 0  3.997896368885054 18.00011311291311 0  4.99792258115488 18.00022809565057 0  5.99849219641419 18.00016538424106 0  6.999018043880521 18.0001075182446 0  7.99951586034389 18.00005293353139 0  9 18 0  -9 20 0  -7.999346389222177 20.00003965142545 0  -6.998676956273435 20.00007984360961 0  -5.99797526754696 20.00012106263309 0  -4.997223659211518 20.00016367988164 0  -3.997192221503914 20.00010055730526 0  -2.997221321325563 20.00003740533125 0  -1.998088824980133 20.00005740338359 0  -0.9989112850004985 20.00007489740536 0  0.0002888185054128497 20.00008999430612 0  0.9994898399761271 20.00010298293955 0  1.998670179102629 20.00011432931965 0  2.997807493448873 20.00012469197718 0  3.997778415623817 20.00011501106471 0  4.997807866157303 20.00010475316619 0  5.998411515992235 20.00007744364963 0  6.998966910410592 20.0000510369388 0  7.999491108738906 20.00002532979473 0  8.999999999968814 19.99999999999843 0  -9 22 0  -7.999348470176184 22.00000857184406 0  -6.998681139388147 22.00001660790104 0  -5.997981715380559 22.00002351182977 0  -4.997232916278672 22.00002856471998 0  -3.997202000315192 22.00009995861306 0  -2.9972310556163 22.00017128113614 0  -1.998073554040351 22.00017963049821 0  -0.998871175673 22.0001898625028 0  0.0003543986128064799 22.000201942092 0  0.9995821773392667 22.00021606281249 0  1.998791229741836 22.00023264320296 0  2.997960058836562 22.00025233164019 0  3.997932820408208 22.00011529810496 0  4.997961138952075 21.99997776501031 0  5.998523631886302 21.99998589252378 0  6.99904042821266 21.99999175723611 0  7.999527524476385 21.99999621516109 0  9 22 0  -9 24 0  -7.999413669496597 23.99997963435872 0  -6.998813514268678 23.99995789854991 0  -5.998185363940572 23.99993336125827 0  -4.997514252561626 23.99990446963853 0  -3.997487422579805 24.00010056145298 0  -2.997512794525394 24.00029650917602 0  -1.998238086914036 24.00029431509627 0  -0.9989239883132072 24.00029742537262 0  0.0004111645686340729 24.00030571270021 0  0.9997495652681764 24.00031928975965 0  1.999073476471634 24.00033850800025 0  2.998364769204605 24.00036395996427 0  3.998342648705441 24.0001142055864 0  4.998366345413134 23.99986399200669 0  5.998818311613694 23.99990339479658 0  6.999232614336522 23.99993810629524 0  7.999622362889952 23.99996979363087 0  9 24 0  -9 26 0  -7.999534066165444 25.99995617797093 0  -6.99905775556197 25.99991039353061 0  -5.998560450631042 25.99986062392778 0  -4.998031036220601 25.99980472716289 0  -3.998010940062935 26.00010197064386 0  -2.998029878521298 26.00039901384038 0  -1.998560464120092 26.00038775689147 0  -0.9990611432223035 26.00038425334326 0  0.0004549528509634024 26.00038829657143 0  0.9999750639781144 26.00039992257472 0  1.999486504831805 26.00041940620843 0  2.998976367086212 26.00044726439955 0  3.998961722382357 26.00011203608182 0  4.998978289174009 25.99977640782795 0  5.999263412894247 25.99983966757692 0  6.999522874783414 25.99989655639778 0  7.99976557642374 25.99994929931961 0  9 26 0  -9 28 0  -7.999695865633162 27.99994057195302 0  -6.999385781862577 27.99987882760678 0  -5.999063680258233 27.99981239147882 0  -4.998723235493676 27.99973877056107 0  -3.998711604265817 28.00010385389538 0  -2.998722239516008 28.00046869071848 0  -1.999002736578383 28.00045015990343 0  -0.9992655178427294 28.00044086274766 0  0.0004826955345008161 28.00044052137287 0  1.00023539577816 28.00044909373647 0  1.999986152053369 28.00046677504554 0  2.999728473283833 28.00049399791777 0  3.999722770422662 28.00010913941589 0  4.999730625527262 27.99972394531556 0  5.999810909827978 27.99980143182088 0  6.999880015389452 27.99987159627892 0  7.99
[...]
<PointData  Vectors="f_42"> 
<DataArray  type="Float64"  Name="f_42"  NumberOfComponents="3" format="ascii">0.0000000000000000e+00 0.0000000000000000e+00 0.0000000000000000e+00  0.0000000000000000e+00 0.0000000000000000e+00 0.0000000000000000e+00  0.0000000000000000e+00 0.0000000000000000e+00 0.0000000000000000e+00  0.0000000000000000e+00 0.0000000000000000e+00 0.0000000000000000e+00  0.0000000000000000e+00 0.0000000000000000e+00 0.0000000000000000e+00  0.0000000000000000e+00 0.0000000000000000e+00 0.0000000000000000e+00  0.0000000000000000e+00 0.0000000000000000e+00 0.0000000000000000e+00  0.0000000000000000e+00 0.0000000000000000e+00 0.0000000000000000e+00  0.0000000000000000e+00 0.0000000000000000e+00 0.0000000000000000e+00  0.0000000000000000e+00 0.0000000000000000e+00 0.0000000000000000e+00  0.0000000000000000e+00 0.0000000000000000e+00 0.0000000000000000e+00  0.0000000000000000e+00 0.0000000000000000e+00 0.0000000000000000e+00  0.0000000000000000e+00 0.0000000000000000e+00 0.0000000000000000e+00  0.0000000000000000e+00 0.0000000000000000e+00 0.0000000000000000e+00  0.0000000000000000e+00 0.0000000000000000e+00 0.0000000000000000e+00  0.0000000000000000e+00 0.0000000000000000e+00 0.0000000000000000e+00  0.0000000000000000e+00 0.0000000000000000e+00 0.0000000000000000e+00  0.0000000000000000e+00 0.0000000000000000e+00 0.0000000000000000e+00  0.0000000000000000e+00 0.0000000000000000e+00 0.0000000000000000e+00  0.0000000000000000e+00 0.0000000000000000e+00 0.0000000000000000e+00  2.6330870092156805e-06 3.4016211727459471e-06 0.0000000000000000e+00  5.4523034784848624e-06 6.3987241397608031e-06 0.0000000000000000e+00  8.9327132010134432e-06 8.6640587994165047e-06 0.0000000000000000e+00  1.4193536957428841e-05 1.0056140851494049e-05 0.0000000000000000e+00  8.7886554662275794e-06 7.4383340693066821e-06 0.0000000000000000e+00  3.2802626222483677e-06 5.0380191049022025e-06 0.0000000000000000e+00  5.5918547069672578e-07 2.8147639431568628e-06 0.0000000000000000e+00  3.1799020053704667e-08 1.0341334225142336e-06 0.0000000000000000e+00  9.0808490944223689e-07 1.7396343805490000e-07 0.0000000000000000e+00  1.9920931542937293e-06 5.0095964790852584e-07 0.0000000000000000e+00  2.1626621400487509e-06 1.8478529834688524e-06 0.0000000000000000e+00  7.2065073525975923e-07 3.4226635696745543e-06 0.0000000000000000e+00  -2.4156684511185630e-06 4.8275282497152916e-06 0.0000000000000000e+00  -6.7482600079613584e-06 4.5025427160952447e-06 0.0000000000000000e+00  -3.6771204605321912e-06 4.8229010482274339e-06 0.0000000000000000e+00  -2.0560097965358922e-06 3.9204070910002433e-06 0.0000000000000000e+00  -9.5923391012034754e-07 2.1760543636425151e-06 0.0000000000000000e+00  0.0000000000000000e+00 0.0000000000000000e+00 0.0000000000000000e+00  -4.9820587634006413e-12 0.0000000000000000e+00 0.0000000000000000e+00  4.5216791602148982e-06 8.4213781178488766e-06 0.0000000000000000e+00  8.2598395813772028e-06 1.5724570388995930e-05 0.0000000000000000e+00  1.0743777886343989e-05 2.0821154496399397e-05 0.0000000000000000e+00  1.2031099740220652e-05 2.2688151703109964e-05 0.0000000000000000e+00  4.4170421831408849e-06 2.1233864612628612e-05 0.0000000000000000e+00  -6.5807541657076645e-07 1.4553609114424822e-05 0.0000000000000000e+00  -1.9895835804079185e-06 5.9627843573832263e-06 0.0000000000000000e+00  -7.9606687405144655e-08 -9.9366497636140092e-07 0.0000000000000000e+00  3.6024098403587016e-06 -4.0071484635846851e-06 0.0000000000000000e+00  7.4357843903316476e-06 -2.4359859035331220e-06 0.0000000000000000e+00  9.8954460230936293e-06 2.4098628620863171e-06 0.0000000000000000e+00  9.4854517697901478e-06 8.8933037056875699e-06 0.0000000000000000e+00  5.7742735184229843e-06 1.4966766970416514e-05 0.0000000000000000e+00  -2.1542070738668666e-07 1.5489381901486547e-05 0.0000000000000000e+00  -1.5541187313326442e-06 1.4537227664706492e-05 0.0000000000000000e+00  -2.0146771268337733e-06 1.1208281850548965e-05 0.0000000000000000e+00  -1.3683054233968451e-06 6.0789509392944064e-06 0.0000000000000000e+00  0.0000000000000000e+00 0.0000000000000000e+00 0.0000000000000000e+00  0.0000000000000000e+00 0.0000000000000000e+00 0.0000000000000000e+00  9.5444614076196386e-06 1.7914168632283367e-05 0.0000000000000000e+00  1.6084281284602859e-05 3.3877114258505795e-05 0.0000000000000000e+00  1.7341299279827827e-05 4.5896844823754487e-05 0.0000000000000000e+00  1.2698742003267080e-05 5.2106921038027996e-05 0.0000000000000000e+00  -1.8811859489021660e-06 4.1976184331348301e-05 0.0000000000000000e+00  -8.3642439187511028e-06 2.1501293356888789e-05 0.0000000000000000e+00  -5.3680937999463335e-06 2.0024549774955688e-07 0.0000000000000000e+00  1.4372246603420275e-06 -1.1473129599830855e-05 0.0000000000000000e+00  8.0827992595624950e-06 -1.3985251909605882e-05 0.0000000000000000e+00  1.3880996119685017e-05 -1.0831813547353660e-05 0.0000000000000000e+00  1.8288206901961149e-05 -1.7635527061762829e-06 0.0000000000000000e+00  2.0183153578623746e-05 1.3607955829189788e-05 0.0000000000000000e+00  1.7456841546182749e-05 2.9159829995699621e-05 0.0000000000000000e+00  6.3905685000937097e-06 3.5808403597785794e-05 0.0000000000000000e+00  -2.9437072829217449e-06 3.3758917019689734e-05 0.0000000000000000e+00  -6.4011239300132567e-06 2.5697900713402248e-05 0.0000000000000000e+00  -4.6651830922360180e-06 1.3780510305696947e-05 0.0000000000000000e+00  0.0000000000000000e+00 0.0000000000000000e+00 0.0000000000000000e+00  0.0000000000000000e+00 0.0000000000000000e+00 0.0000000000000000e+00  2.6586662462365396e-05 3.5213172165039566e-05 0.0000000000000000e+00  4.5040432412247430e-05 6.7803912265821235e-05 0.0000000000000000e+00  4.7537347736944690e-05 9.4212478398908079e-05 0.0000000000000000e+00  2.7540033284435636e-05 1.0858462700664619e-04 0.0000000000000000e+00  -1.0113383977413999e-06 6.2916619997418848e-05 0.0000000000000000e+00  5.6353403920023497e-06 9.6258344484179886e-06 0.0000000000000000e+00  1.7508089683457894e-05 -1.5532663891603214e-05 0.0000000000000000e+00  1.8926328882000939e-05 -1.7363414202495002e-05 0.0000000000000000e+00  1.2599978908346119e-05 -1.7736497294069592e-05 0.0000000000000000e+00  7.5650721621868532e-06 -2.0283383780522548e-05 0.0000000000000000e+00  8.9710842146519986e-06 -1.1386224440641937e-05 0.0000000000000000e+00  2.0377858293329971e-05 3.8379276402456688e-06 0.0000000000000000e+00  2.4338683283669865e-05 4.3449523419329760e-05 0.0000000000000000e+00  -1.1770097084233358e-06 8.8386541769607479e-05 0.0000000000000000e+00  -2.7841668910674928e-05 7.7028348616221945e-05 0.0000000000000000e+00  -3.1561957909926136e-05 5.5614195406830941e-05 0.0000000000000000e+00  -1.9679786678382900e-05 2.8935397132041282e-05 0.0000000000000000e+00  0.0000000000000000e+00 0.0000000000000000e+00 0.0000000000000000e+00  0.0000000000000000e+00 0.0000000000000000e+00 0.0000000000000000e+00  7.6167342618383593e-05 6.3007396738357487e-05 0.0000000000000000e+00  1.3783129185555303e-04 1.2646790068495157e-04 0.0000000000000000e+00  1.6771673123942214e-04 1.9068774697620657e-04 0.0000000000000000e+00  1.4187290900541675e-04 2.5563971289787820e-04 0.0000000000000000e+00  9.5778841848311212e-05 1.0613059994795102e-04 0.0000000000000000e+00  1.0573247132109290e-04 -2.1786811862045694e-05 0.0000000000000000e+00  8.8383380771824550e-05 3.5323211229209071e-06 0.0000000000000000e+00  4.8161973390401209e-05 1.1722743078848830e-05 0.0000000000000000e+00  1.9473190585600573e-05 1.3717368616224132e-05 0.0000000000000000e+00  -8.4133616297318079e-06 1.3246516916917815e-05 0.0000000000000000e+00  -4.4869643223868584e-05 1.2769987003955828e-05 0.0000000000000000e+00  -7.7830000186779620e-05 -3.0422805691981127e-05 0.0000000000000000e+00  -7.4363461286857052e-05 7.4842389307411232e-05 0.0000000000000000e+00  -1.2062840332574750e-04 2.1438773735311289e-04 0.0000000000000000e+00  -1.4452918091496182e-04 1.6053052888438497e-04 0.0000000000000000e+00  -1.1913997763176103e-04 1.0659391260750413e-04 0.0000000000000000e+00  -6.5889454125390239e-05 5.3119662011838466e-05 0.0000000000000000e+00  0.0000000000000000e+00 0.0000000000000000e+00 0.0000000000000000e+00  0.0000000000000000e+00 0.0000000000000000e+00 0.0000000000000000e+00  1.8379430117274604e-04 8.9001235147119736e-05 0.0000000000000000e+00  3.5778947452370599e-04 1.8211495974805976e-04 0.0000000000000000e+00  5.1091608937987431e-04 2.8427041525820005e-04 0.0000000000000000e+00  6.2954903861919007e-04 4.0237686338194642e-04 0.0000000000000000e+00  6.0557594837533401e-04 1.2642048739028275e-04 0.0000000000000000e+00  6.2944274315943982e-04 -1.4718864200385484e-04 0.0000000000000000e+00  4.5498369891115763e-04 -1.1017936124183598e-04 0.0000000000000000e+00  2.5662276143876184e-04 -8.8057833895881425e-05 0.0000000000000000e+00  4.8179430319926347e-05 -7.9943867114441654e-05 0.0000000000000000e+00  -1.6449713611174177e-04 -8.6090272405813005e-05 0.0000000000000000e+00  -3.7705642190054181e-04 -1.0926216999112916e-04 0.0000000000000000e+00  -5.8125734620795180e-04 -1.5670020578799416e-04 0.0000000000000000e+00  -5.6188967170232298e-04 9.5193816790000932e-05 0.0000000000000000e+00  -5.7335924111981721e-04 3.4886042220677669e-04 0.0000000000000000e+00  -4.5843332845543560e-04 2.4436995094002576e-04 0.0000000000000000e+00  -3.1819112575940490e-04 1.5573614298518862e-04 0.0000000000000000e+00  -1.6267150299690940e-04 7.5892905426927089e-05 0.0000000000000000e+00  0.0000000000000000e+00 0.0000000000000000e+00 0.0000000000000000e+00  0.0000000000000000e+00 0.0000000000000000e+00 0.0000000000000000e+00  3.3068650055378913e-04 9.8559021764246875e-05 0.0000000000000000e+00  6.6133195192760708e-04 2.0161920133280597e-04 0.0000000000000000e+00  9.9227836074881740e-04 3.1408427908516645e-04 0.0000000000000000e+00  1.3249863736805893e-03 4.4164561431276185e-04 0.0000000000000000e+00  1.3280298984527086e-03 1.1429551898217550e-04 0.0000000000000000e+00  1.3323380285175700e-03 -2.1741772792462335e-04 0.0000000000000000e+00  9.1706187906382265e-04 -1.6431500030776439e-04 0.0000000000000000e+00  5.0534592921772960e-04 -1.3178579524400811e-04 0.0000000000000000e+00  9.3812454709975607e-05 -1.1654485444083251e-04 0.0000000000000000e+00  -3.2098291303669642e-04 -1.1730337919986599e-04 0.0000000000000000e+00  -7.4252981076027523e-04 -1.3420051936704130e-04 0.0000000000000000e+00  -1.1739657716254340e-03 -1.6825323564889901e-04 0.0000000000000000e+00  -1.1789991424303451e-03 1.0331092689375860e-04 0.0000000000000000e+00  -1.1782620388091148e-03 3.7274340320895682e-04 0.0000000000000000e+00  -8.7372519621969685e-04 2.6482230137713544e-04 0.0000000000000000e+00  -5.7842258339323974e-04 1.6973931789519405e-04 0.0000000000000000e+00  -2.8810429099412622e-04 8.2877258050340874e-05 0.0000000000000000e+00  0.0000000000000000e+00 0.0000000000000000e+00 0.0000000000000000e+00  0.0000000000000000e+00 0.0000000000000000e+00 0.0000000000000000e+00  4.7783820698863171e-04 9.0121668487279963e-05 0.0000000000000000e+00  9.6382718612572063e-04 1.8352367830883035e-04 0.0000000000000000e+00  1.4668454217549485e-03 2.8354261142910745e-04 0.0000000000000000e+00  1.9973381100100401e-03 3.9356094734375709e-04 0.0000000000000000e+00  2.0152981728915552e-03 1.0660116061197517e-04 0.0000000000000000e+00  2.0002406379811353e-03 -1.7911939038872527e-04 0.0000000000000000e+00  1.3646628222172277e-03 -1.3608651226871123e-04 0.0000000000000000e+00  7.5322389351197819e-04 -1.0630500475400748e-04 0.0000000000000000e+00  1.5247389309920443e-04 -8.9098910995975115e-05 0.0000000000000000e+00  -4.5038788223209831e-04 -8.3915312859032652e-05 0.0000000000000000e+00  -1.0682656735869144e-03 -9.0470986870590407e-05 0.0000000000000000e+00  -1.7149663940364715e-03 -1.0868903888143407e-04 0.0000000000000000e+00  -1.7342744339111616e-03 1.0889778691880622e-04 0.0000000000000000e+00  -1.7165489157338846e-03 3.2644418803942383e-04 0.0000000000000000e+00  -1.2522849259107296e-03 2.3394731576463398e-04 0.0000000000000000e+00  -8.1883854460458149e-04 1.5087628951763796e-04 0.0000000000000000e+00  -4.0475201127521685e-04 7.3931304315151211e-05 0.0000000000000000e+00  0.0000000000000000e+00 0.0000000000000000e+00 0.0000000000000000e+00  0.0000000000000000e+00 0.0000000000000000e+00 0.0000000000000000e+00  5.9248978120482292e-04 6.8565562116514690e-05 0.0000000000000000e+00  1.1983860113978797e-03 1.3897020886101098e-04 0.0000000000000000e+00  1.8318039362921709e-03 2.1301858654580811e-04 0.0000000000000000e+00  2.5083049160989981e-03 2.9242621792156863e-04 0.0000000000000000e+00  2.5357049854707330e-03 1.0278950386862458e-04 0.0000000000000000e+00  2.5112977738621324e-03 -8.6840406161347477e-05 0.0000000000000000e+00  1.7154142126663426e-03 -5.4794707217948176e-05 0.0000000000000000e+00  9.5819792386058638e-04 -3.0465622967650919e-05 0.0000000000000000e+00  2.1955573116020564e-04 -1.3507383203564446e-05 0.0000000000000000e+00  -5.1963752397006318e-04 -3.5166654386626846e-06 0.0000000000000000e+00  -1.2784847579131447e-03 -4.1678532016733462e-08 0.0000000000000000e+00  -2.0769872863780191e-03 -2.5435452108720769e-06 0.0000000000000000e+00  -2.1036311149426885e-03 1.1311291310222457e-04 0.0000000000000000e+00  -2.0774188451187009e-03 2.2809565055209846e-04 0.0000000000000000e+00  -1.5078035858034553e-03 1.6538424105230090e-04 0.0000000000000000e+00  -9.8195611947316896e-04 1.0751824460429209e-04 0.0000000000000000e+00  -4.8413965610692781e-04 5.2933531402639506e-05 0.0000000000000000e+00  0.0000000000000000e+00 0.0000000000000000e+00 0.0000000000000000e+00  0.0000000000000000e+00 0.0000000000000000e+00 0.0000000000000000e+00  6.5361077783307388e-04 3.9651425440958366e-05 0.0000000000000000e+00  1.3230437265669627e-03 7.9843609620343668e-05 0.0000000000000000e+00  2.0247324530351832e-03 1.2106263311065384e-04 0.0000000000000000e+00  2.7763407884806527e-03 1.6367988165091454e-04 0.0000000000000000e+00  2.8077784960873799e-03 1.0055730526995574e-04 0.0000000000000000e+00  2.7786786744332724e-03 3.7405331249275648e-05 0.0000000000000000e+00  1.9111750198666504e-03 5.7403383592173663e-05 0.0000000000000000e+00  1.0887149995010680e-03 7.4897405355056499e-05 0.0000000000000000e+00  2.8881850541284969e-04 8.9994306139176258e-05 0.0000000000000000e+00  -5.1016002387227585e-04 1.0298293955951299e-04 0.0000000000000000e+00  -1.3298208973670362e-03 1.1432931964724382e-04 0.0000000000000000e+00  -2.1925065511250869e-03 1.2469197714773506e-04 0.0000000000000000e+00  -2.2215843761790996e-03 1.1501106469508963e-04 0.0000000000000000e+00  -2.1921338426971028e-03 1.0475316620640638e-04 0.0000000000000000e+00  -1.5884840077644547e-03 7.7443649601502279e-05 0.0000000000000000e+00  -1.0330895894104962e-03 5.1036938796337886e-05 0.0000000000000000e+00  -5.0889126111088089e-04 2.5329794704581565e-05 0.0000000000000000e+00  -3.1185176505298184e-11 -1.5591057276596631e-12 0.0000000000000000e+00  0.0000000000000000e+00 0.0000000000000000e+00 0.0000000000000000e+00  6.5152982381888700e-04 8.5718440565918503e-06 0.0000000000000000e+00  1.3188606118476232e-03 1.6607901043021905e-05 0.0000000000000000e+00  2.0182846194374280e-03 2.3511829773974221e-05 0.0000000000000000e+00  2.7670837213305283e-03 2.8564719978269454e-05 0.0000000000000000e+00  2.7979996848054869e-03 9.9958613074389358e-05 0.0000000000000000e+00  2.7689443836979330e-03 1.7128113614978932e-04 0.0000000000000000e+00  1.9264459596527385e-03 1.7963049824249160e-04 0.0000000000000000e+00  1.1288243269989588e-03 1.8986250280592537e-04 0.0000000000000000e+00  3.5439861280647989e-04 2.0194209199744732e-04 0.0000000000000000e+00  -4.1782266073323086e-04 2.1606281246943376e-04 0.0000000000000000e+00  -1.2087702581650580e-03 2.3264320294191524e-04 0.0000000000000000e+00  -2.0399411634386103e-03 2.5233164017221326e-04 0.0000000000000000e+00  -2.0671795917856844e-03 1.1529810496074275e-04 0.0000000000000000e+00  -2.0388610479266213e-03 -2.2234989684834991e-05 0.0000000000000000e+00  -1.4763681137020643e-03 -1.4107476212422666e-05 0.0000000000000000e+00  -9.5957178734503313e-04 -8.2427638734811044e-06 0.0000000000000000e+00  -4.7247552361698368e-04 -3.7848388911810807e-06 0.0000000000000000e+00  0.0000000000000000e+00 0.0000000000000000e+00 0.0000000000000000e+00  0.0000000000000000e+00 0.0000000000000000e+00 0.0000000000000000e+00  5.8633050341745142e-04 -2.0365641283799723e-05 0.0000000000000000e+00  1.1864857313206845e-03 -4.2101450077664390e-05 0.0000000000000000e+00  1.8146360594220102e-03 -6.6638741725856863e-05 0.0000000000000000e+00  2.4857474383822953e-03 -9.5530361484044441e-05 0.0000000000000000e+00  2.5125774201942871e-03 1.0056145299546326e-04 0.0000000000000000e+00  2.4872054746054931e-03 2.9650917600345717e-04 0.0000000000000000e+00  1.7619130859652583e-03 2.9431509625227060e-04 0.0000000000000000e+00  1.0760116867923834e-03 2.9742537260687703e-04 0.0000000000000000e+00  4.1116456863407293e-04 3.0571270020979984e-04 0.0000000000000000e+00  -2.5043473182542275e-04 3.1928975964039524e-04 0.0000000000000000e+00  -9.2652352836203875e-04 3.3850800027762092e-04 0.0000000000000000e+00  -1.6352307953957058e-03 3.6395996427086304e-04 0.0000000000000000e+00  -1.6573512945688336e-03 1.1420558641326161e-04 0.0000000000000000e+00  -1.6336545868668045e-03 -1.3600799332289055e-04 0.0000000000000000e+00  -1.1816883863050727e-03 -9.6605203400001758e-05 0.0000000000000000e+00  -7.6738566348359238e-04 -6.1893704771574296e-05 0.0000000000000000e+00  -3.7763711004218489e-04 -3.0206369129227664e-05 0.0000000000000000e+00  0.0000000000000000e+00 0.0000000000000000e+00 0.0000000000000000e+00  0.0000000000000000e+00 0.0000000000000000e+00 0.0000000000000000e+00  4.6593383454697311e-04 -4.3822029066944396e-05 0.0000000000000000e+00  9.4224443802799632e-04 -8.9606469398260111e-05 0.0000000000000000e+00  1.4395493689609467e-03 -1.3937607221955071e-04 0.0000000000000000e+00  1.9689637794053898e-03 -1.9527283710239025e-04 0.0000000000000000e+00  1.9890599370616813e-03 1.0197064387058113e-04 0.0000000000000000e+00  1.9701214787042442e-03 3.9901384038656045e-04 0.0000000000000000e+00  1.4395358799056213e-03 3.8775689146964274e-04 0.0000000000000000e+00  9.3885677769716108e-04 3.8425334327253879e-04 0.0000000000000000e+00  4.5495285096340239e-04 3.8829657144457921e-04 0.0000000000000000e+00  -2.4936021885104724e-05 3.9992257473035688e-04 0.0000000000000000e+00  -5.1349516819358589e-04 4.1940620839488115e-04 0.0000000000000000e+00  -1.0236329137896776e-03 4.4726439955290954e-04 0.0000000000000000e+00  -1.0382776176390285e-03 1.1203608183272249e-04 0.0000000000000000e+00  -1.0217108259948883e-03 -2.2359217203630301e-04 0.0000000000000000e+00  -7.3658710575618812e-04 -1.6033242309931314e-04 0.0000000000000000e+00  -4.7712521658811659e-04 -1.0344360221252600e-04 0.0000000000000000e+00  -2.3442357625501987e-04 -5.0700680362187052e-05 0.0000000000000000e+00  0.0000000000000000e+00 0.0000000000000000e+00 0.0000000000000000e+00  0.0000000000000000e+00 0.0000000000000000e+00 0.0000000000000000e+00  3.0413436683963149e-04 -5.9428046976221017e-05 0.0000000000000000e+00  6.1421813742270303e-04 -1.2117239321405554e-04 0.0000000000000000e+00  9.3631974176428738e-04 -1.8760852117912159e-04 0.0000000000000000e+00  1.2767645063249174e-03 -2.6122943894520400e-04 0.0000000000000000e+00  1.2883957341780455e-03 1.0385389536265893e-04 0.0000000000000000e+00  1.2777604839932400e-03 4.6869071846005416e-04 0.0000000000000000e+00  9.9726342161546582e-04 4.5015990339023306e-04 0.0000000000000000e+00  7.3448215727030448e-04 4.4086274765294464e-04 0.0000000000000000e+00  4.8269553450081611e-04 4.4052137284339909e-04 0.0000000000000000e+00  2.3539577815950187e-04 4.4909373646688565e-04 0.0000000000000000e+00  -1.3847946629174561e-05 4.6677504554052025e-04 0.0000000000000000e+00  -2.7152671616341537e-04 4.9399791776727400e-04 0.0000000000000000e+00  -2.7722957733966993e-04 1.0913941589329331e-04 0.0000000000000000e+00  -2.6937447274042039e-04 -2.7605468444677597e-04 0.0000000000000000e+00  -1.8909017202192076e-04 -1.9856817910637886e-04 0.000