<?xml version="1.0"?>
<VTKFile type="UnstructuredGrid"  version="0.1"  >
<UnstructuredGrid>
<Piece  NumberOfPoints="589" NumberOfCells="1080">
<Points>
<DataArray  type="Float64"  NumberOfComponents="3"  format="ascii">-9 0 0  -8 0 0  -7 0 0  -6 0 0  -5 0 0  -4 0 0  -3 0 0  -2 0 0  -1 0 0  0 0 0  1 0 0  2 0 0  3 0 0  4 0 0  5 0 0  6 0 0  7 0 0  8 0 0  9 0 0  -9 2 0  -8.000002178411091 1.999997198917142 0  -7.000004598373183 1.999994683358163 0  -6.000007746512337 1.999992678019773 0  -5.000012667700449 1.99999125827429 0  -4.000008179802706 1.999993633260296 0  -3.000003426140789 1.999995568673469 0  -2.000000894339927 1.999997247028875 0  -1.000000028787056 1.999998563919443 0  -2.010069941785346e-07 1.999999142202131 0  0.9999995417878906 1.999998766275454 0  2.00000011735769 1.99999752802331 0  3.000002155273896 1.999995978843525 0  4.000005871733865 1.999994262782299 0  5.000011115343961 1.999993426252134 0  6.000006721048397 1.999993897377093 0  7.000003966920401 1.999995372029225 0  8.000001876610561 1.99999751652534 0  9 2 0  -9 4 0  -8.000003390604325 3.999993255780308 0  -7.000006284033776 3.999987325866352 0  -6.000008400814083 3.999983013685666 0  -5.000009821502333 3.999981098963905 0  -4.000003650684289 3.999982062752566 0  -2.99999928600612 3.999987024471281 0  -1.999997650257029 3.999993467860436 0  -0.9999983844631871 3.999998613894781 0  -4.344248551470348e-07 4.000000705914584 0  0.9999974477016886 3.999999156894624 0  1.99999649018149 3.999994873011205 0  2.999997909891947 3.999989043934846 0  4.000002042713409 3.999983188150178 0  5.000007907667963 3.999981188527918 0  6.000006881399285 3.999983780670825 0  7.000005278550269 3.999988064724738 0  8.000002898403888 3.999993677180187 0  9 4 0  -9 6 0  -8.00000659145255 5.999986055598981 0  -7.000011076293653 5.999973497602229 0  -6.000011839502332 5.999963759661062 0  -5.000008406688002 5.99995823338408 0  -3.999996987469781 5.999965384473516 0  -2.99999147812914 5.999980338551391 0  -1.999992798805647 5.999996008072735 0  -0.9999970266796144 6.000004757003305 0  -1.3182776597038e-06 6.00000658238965 0  0.9999949086208939 6.000003786917979 0  1.999992214891637 5.99999605321803 0  2.99999157737841 5.999983050542053 0  3.999994679069141 5.999969598836567 0  5.000004394891739 5.999963044129832 0  6.000009348083476 5.999966896459965 0  7.000009699332768 5.999975443980556 0  8.000005993163199 5.999986996540439 0  9 6 0  -9 8 0  -8.000018219027849 7.9999733105744 0  -7.000030754822481 7.999948389939061 0  -6.000032062163518 7.99992765977746 0  -5.000017299938127 7.999915146242835 0  -3.999995984172555 7.999947889368094 0  -2.999999212819709 7.99998638205045 0  -2.000006489617144 8.000005280906121 0  -1.000006622885436 8.000007647162446 0  -1.467768812036122e-06 8.000008342373613 0  1.000002571019791 8.000010088319758 0  2.000001668177491 8.000002283509696 0  2.999993306859022 7.999988825930011 0  3.999991115603783 7.999956190225589 0  5.000012105543612 7.999919540024965 0  6.000030222008928 7.999931232572217 0  7.000030349171571 7.9999508039193 0  8.00001823535089 7.999974512951358 0  9 8 0  -9 10 0  -8.000052575841142 9.999953493404261 0  -7.000095343064613 9.999906525011992 0  -6.000116559309387 9.9998587010039 0  -5.000099810688175 9.999809781795733 0  -4.000066560780237 9.999914145497728 0  -3.000070762059771 10.00000412861934 0  -2.000056243111081 9.999989451711111 0  -1.00002654654736 9.999984746090579 0  -4.452771094580353e-06 9.999983612451249 0  1.000017438263479 9.9999836407607 0  2.000046165702211 9.999982891424919 0  3.000072183026398 10.00001385301124 0  4.000070347414718 9.999929469892626 0  5.000107491921062 9.999818720874277 0  6.000123045523318 9.999864059416293 0  7.000099958136791 9.999909616473166 0  8.000054960467633 9.999954919458693 0  9 10 0  -9 12 0  -8.000126150385125 11.99993552967309 0  -7.000246108042516 11.99986809301029 0  -6.00035286466891 11.99979414109595 0  -5.000437762848915 11.99970872116991 0  -4.000421162356923 11.99989686039789 0  -3.000435446370712 12.00008316525972 0  -2.000299422506003 12.00006048735435 0  -1.000149305653134 12.00004811499206 0  6.145905953068745e-06 12.00004546031885 0  1.000163269533817 12.00005287849682 0  2.000319088726258 12.00007263166175 0  3.000467374659008 12.00011042521912 0  4.000452758498799 11.9999112493555 0  5.000463086724984 11.99971055468032 0  6.000370396295323 11.99979602561162 0  7.000257189722947 11.9998694536358 0  8.000131525293307 11.99993622094305 0  9 12 0  -9 14 0  -8.000224461799174 13.99992943819373 0  -7.000449622929117 13.99985573392488 0  -6.00067651143712 13.9997754705426 0  -5.00090703290479 13.9996846985373 0  -4.000909517832108 13.99990207095558 0  -3.000909827940449 14.00012228414214 0  -2.000599037780672 14.00009031394484 0  -1.00029343216875 14.00007262449175 0  1.006311118435735e-05 14.00006702711025 0  1.000314366356028 14.00007278890762 0  2.000622236447382 14.00009022866779 0  3.000936014991876 14.00012031561345 0  4.000939745456301 13.99990279275034 0  5.000940820961259 13.99968671924213 0  6.000699730821932 13.99977618990636 0  7.000464205350224 13.99985594944811 0  8.000231503924912 13.99992948406387 0  9 14 0  -9 16 0  -8.000319930007912 15.99993592099405 0  -7.00064615299967 15.99986962068765 0  -6.000985505433476 15.99979884853971 0  -5.001345965602827 15.99972134002444 0  -4.001358682459875 15.99990430987078 0  -3.001345916433872 16.00008624697184 0  -2.000878032724021 16.00006305405936 0  -1.000429169593668 16.00004879494853 0  1.074930112086711e-05 16.00004318347204 0  1.000451248849689 16.00004601267059 0  2.000901863369072 16.00005726261894 0  3.001372747095143 16.00007705152801 0  4.001387115536727 15.99989655019058 0  5.001375259631306 15.99971589646355 0  6.001006672420022 15.99979521556435 0  7.000659843453304 15.99986735690757 0  8.000326643995638 15.99993482818067 0  9 16 0  -9 18 0  -8.000390178305297 17.99995128993802 0  -7.0007900794754 17.99990139894305 0  -6.001209931651975 17.99984917886582 0  -5.001660981565923 17.99979355828967 0  -4.001679896386428 17.99990420882493 0  -3.001661164326404 18.00001470581349 0  -2.00108109209699 18.00000008751374 0  -1.000529199841083 17.99999040456667 0  9.109382834295371e-06 17.99998560651139 0  1.000547733124942 17.99998558206679 0  2.001100549686874 17.99999016805436 0  3.001682089805911 17.99999912056033 0  4.001701913067749 17.99989173612878 0  5.001683542059035 17.99978468863946 0  6.001226431027583 17.99984296233923 0  7.000800869239892 17.99989745085421 0  8.000395508353177 17.99994937223672 0  9 18 0  -9 20 0  -8.000421491501241 19.99997138155241 0  -7.00085411593058 19.99994249408363 0  -6.001309425581105 19.99991311278104 0  -5.001799812499052 19.99988310294836 0  -4.001821118755657 19.99990340798002 0  -3.001799769395693 19.99992357413925 0  -2.001171595111696 19.99991739932813 0  -1.000574977109112 19.99991249524973 0  6.207711148574903e-06 19.99990895576225 0  1.000587515998268 19.99990672957049 0  2.001184494668945 19.99990562541437 0  3.001813239239605 19.99990530144929 0  4.001834934907135 19.99988901586129 0  5.001813862038124 19.99987297285823 0  6.001319841394549 19.99990585183764 0  7.00086099834948 19.99993781412417 0  8.000424913443094 19.99996908966957 0  8.999999999993639 20.00000000000385 0  -9 22 0  -8.000408233448733 21.99999254803293 0  -7.000827327499641 21.99998556374681 0  -6.001268470126039 21.99997956004138 0  -5.001743502257505 21.9999751407795 0  -4.001764113497495 21.99990183251267 0  -3.001743445126451 21.99982840091946 0  -2.001136036204149 21.99982963353097 0  -1.000559098302978 21.99982913370669 0  2.811783014052615e-06 21.99982705799931 0  1.000564693548646 21.99982339441777 0  2.001141537977391 21.99981796596571 0  3.001748762929837 21.9998104281069 0  4.001769235819976 21.99988775204728 0  5.001748551482511 21.99996524313987 0  6.001272398431763 21.99997240674012 0  7.000830009152858 21.99998092294799 0  8.000409592077364 21.9999902659908 0  9 22 0  -9 24 0  -8.000351493372635 24.00001184340906 0  -7.000712260531772 24.00002471047398 0  -6.001091816573109 24.00003966840596 0  -5.001500150529263 24.00005786917144 0  -4.001517730462909 23.99989972043327 0  -3.001500209327037 23.99974148816011 0  -2.000978749706369 23.99974878987139 0  -1.000483180565147 23.99975206855215 0  -4.671665267099323e-07 23.99975150453431 0  1.000482100527484 23.9997471110091 0  2.000977224549187 23.99973873528985 0  3.001497915541503 23.99972605810588 0  4.001514818869672 23.99988769190729 0  5.00149696139122 24.00004945566252 0  6.001089764940219 24.00003354971351 0  7.000711050629504 24.00002072329231 0  8.000350934435861 24.00000987735874 0  9 24 0  -9 26 0  -8.000257611175847 26.00002704462423 0  -7.000521951815752 26.00005549688898 0  -6.000799909823142 26.00008680479855 0  -5.001098682194289 26.00012249756118 0  -4.001111532021306 25.99989729680741 0  -3.001098965515878 25.99967204928231 0  -2.000718051756608 25.99968402299838 0  -1.000355907812231 25.99969035945695 0  -3.156955886575439e-06 25.99969125416783 0  1.00034936340787 25.99968674097867 0  2.000710807919065 25.99967669426199 0  3.001090528933445 25.99966082689193 0  4.001102181854439 25.99988858130837 0  5.001088912661688 26.00011642722226 0  6.000793069168431 26.00008237431375 0  7.000517618729758 26.00005260178658 0  8.000255511756404 26.00002561470812 0  9 26 0  -9 28 0  -8.000136760626996 28.00003661596538 0  -7.000277080338044 28.00007486099335 0  -6.000424599278317 28.00011640287649 0  -5.000583110334055 28.00016298680608 0  -4.00059012872606 27.99989478159148 0  -3.000583701217502 27.99962656883028 0  -2.000382420670176 27.99964179028884 0  -1.000191129008277 27.99965040358396 0  -4.918339585631896e-06 27.99965261864104 0  1.000181009918543 27.99964849057312 0  2.000371445963212 27.99963791868042 0  3.000571273804909 27.9996206468189 0  4.000576612590116 27.99989019749506 0  5.000569093943312 28.00015980878367 0  6.000414663775288 28.0001140783597 0  7.000270726897472 28.00007333961569 0  8.000133663
[...]
<PointData  Vectors="f_42"> 
<DataArray  type="Float64"  Name="f_42"  NumberOfComponents="3" format="ascii">0.0000000000000000e+00 0.0000000000000000e+00 0.0000000000000000e+00  0.0000000000000000e+00 0.0000000000000000e+00 0.0000000000000000e+00  0.0000000000000000e+00 0.0000000000000000e+00 0.0000000000000000e+00  0.0000000000000000e+00 0.0000000000000000e+00 0.0000000000000000e+00  0.0000000000000000e+00 0.0000000000000000e+00 0.0000000000000000e+00  0.0000000000000000e+00 0.0000000000000000e+00 0.0000000000000000e+00  0.0000000000000000e+00 0.0000000000000000e+00 0.0000000000000000e+00  0.0000000000000000e+00 0.0000000000000000e+00 0.0000000000000000e+00  0.0000000000000000e+00 0.0000000000000000e+00 0.0000000000000000e+00  0.0000000000000000e+00 0.0000000000000000e+00 0.0000000000000000e+00  0.0000000000000000e+00 0.0000000000000000e+00 0.0000000000000000e+00  0.0000000000000000e+00 0.0000000000000000e+00 0.0000000000000000e+00  0.0000000000000000e+00 0.0000000000000000e+00 0.0000000000000000e+00  0.0000000000000000e+00 0.0000000000000000e+00 0.0000000000000000e+00  0.0000000000000000e+00 0.0000000000000000e+00 0.0000000000000000e+00  0.0000000000000000e+00 0.0000000000000000e+00 0.0000000000000000e+00  0.0000000000000000e+00 0.0000000000000000e+00 0.0000000000000000e+00  0.0000000000000000e+00 0.0000000000000000e+00 0.0000000000000000e+00  0.0000000000000000e+00 0.0000000000000000e+00 0.0000000000000000e+00  0.0000000000000000e+00 0.0000000000000000e+00 0.0000000000000000e+00  -2.1784110885480445e-06 -2.8010828579662551e-06 0.0000000000000000e+00  -4.5983731821643280e-06 -5.3166418375612467e-06 0.0000000000000000e+00  -7.7465123349757289e-06 -7.3219802278076805e-06 0.0000000000000000e+00  -1.2667700449379373e-05 -8.7417257100340177e-06 0.0000000000000000e+00  -8.1798027050552494e-06 -6.3667397041198429e-06 0.0000000000000000e+00  -3.4261407892643837e-06 -4.4313265313796529e-06 0.0000000000000000e+00  -8.9433992625820777e-07 -2.7529711255947936e-06 0.0000000000000000e+00  -2.8787056367604500e-08 -1.4360805573419881e-06 0.0000000000000000e+00  -2.0100699417853456e-07 -8.5779786931792817e-07 0.0000000000000000e+00  -4.5821210900740529e-07 -1.2337245457199610e-06 0.0000000000000000e+00  1.1735768849653738e-07 -2.4719766896324404e-06 0.0000000000000000e+00  2.1552738963352197e-06 -4.0211564761349694e-06 0.0000000000000000e+00  5.8717338645367284e-06 -5.7372177007702191e-06 0.0000000000000000e+00  1.1115343959308195e-05 -6.5737478657987238e-06 0.0000000000000000e+00  6.7210483945468289e-06 -6.1026229073538048e-06 0.0000000000000000e+00  3.9669204030837992e-06 -4.6279707745770391e-06 0.0000000000000000e+00  1.8766105562574439e-06 -2.4834746608803404e-06 0.0000000000000000e+00  0.0000000000000000e+00 0.0000000000000000e+00 0.0000000000000000e+00  0.0000000000000000e+00 0.0000000000000000e+00 0.0000000000000000e+00  -3.3906043239006877e-06 -6.7442196930633173e-06 0.0000000000000000e+00  -6.2840337706544005e-06 -1.2674133649346672e-05 0.0000000000000000e+00  -8.4008140832957200e-06 -1.6986314334405106e-05 0.0000000000000000e+00  -9.8215023348462877e-06 -1.8901036095273747e-05 0.0000000000000000e+00  -3.6506842901387148e-06 -1.7937247434614662e-05 0.0000000000000000e+00  7.1399387916227266e-07 -1.2975528719106720e-05 0.0000000000000000e+00  2.3497429709145961e-06 -6.5321395642944562e-06 0.0000000000000000e+00  1.6155368127760789e-06 -1.3861052168197174e-06 0.0000000000000000e+00  -4.3442485514703479e-07 7.0591458535201393e-07 0.0000000000000000e+00  -2.5522983119097630e-06 -8.4310537453069551e-07 0.0000000000000000e+00  -3.5098185097093536e-06 -5.1269887951329913e-06 0.0000000000000000e+00  -2.0901080498857165e-06 -1.0956065155077942e-05 0.0000000000000000e+00  2.0427134068021648e-06 -1.6811849822266664e-05 0.0000000000000000e+00  7.9076679614524145e-06 -1.8811472081511757e-05 0.0000000000000000e+00  6.8813992806681521e-06 -1.6219329175501867e-05 0.0000000000000000e+00  5.2785502699249588e-06 -1.1935275260196279e-05 0.0000000000000000e+00  2.8984038925639967e-06 -6.3228198129403270e-06 0.0000000000000000e+00  0.0000000000000000e+00 0.0000000000000000e+00 0.0000000000000000e+00  0.0000000000000000e+00 0.0000000000000000e+00 0.0000000000000000e+00  -6.5914525497805240e-06 -1.3944401020476020e-05 0.0000000000000000e+00  -1.1076293653210892e-05 -2.6502397768922765e-05 0.0000000000000000e+00  -1.1839502333075718e-05 -3.6240338938284603e-05 0.0000000000000000e+00  -8.4066880000103821e-06 -4.1766615918663964e-05 0.0000000000000000e+00  3.0125302203898561e-06 -3.4615526481741395e-05 0.0000000000000000e+00  8.5218708601843502e-06 -1.9661448607489173e-05 0.0000000000000000e+00  7.2011943530601977e-06 -3.9919272664688686e-06 0.0000000000000000e+00  2.9733203855654658e-06 4.7570033052257114e-06 0.0000000000000000e+00  -1.3182776597037996e-06 6.5823896481303859e-06 0.0000000000000000e+00  -5.0913791063592041e-06 3.7869179816813254e-06 0.0000000000000000e+00  -7.7851083638475473e-06 -3.9467819698323922e-06 0.0000000000000000e+00  -8.4226215902532089e-06 -1.6949457945750517e-05 0.0000000000000000e+00  -5.3209308591212718e-06 -3.0401163431871381e-05 0.0000000000000000e+00  4.3948917396629175e-06 -3.6955870167292159e-05 0.0000000000000000e+00  9.3480834742808146e-06 -3.3103540034158632e-05 0.0000000000000000e+00  9.6993327676653973e-06 -2.4556019445686648e-05 0.0000000000000000e+00  5.9931631968214208e-06 -1.3003459559999705e-05 0.0000000000000000e+00  0.0000000000000000e+00 0.0000000000000000e+00 0.0000000000000000e+00  0.0000000000000000e+00 0.0000000000000000e+00 0.0000000000000000e+00  -1.8219027854316763e-05 -2.6689425597722830e-05 0.0000000000000000e+00  -3.0754822480770249e-05 -5.1610060941618426e-05 0.0000000000000000e+00  -3.2062163518426954e-05 -7.2340222545973432e-05 0.0000000000000000e+00  -1.7299938129989400e-05 -8.4853757162079883e-05 0.0000000000000000e+00  4.0158274447793023e-06 -5.2110631906644660e-05 0.0000000000000000e+00  7.8718029009818121e-07 -1.3617949549237069e-05 0.0000000000000000e+00  -6.4896171443882477e-06 5.2809061229535580e-06 0.0000000000000000e+00  -6.6228854355074561e-06 7.6471624459740594e-06 0.0000000000000000e+00  -1.4677688120361220e-06 8.3423736115895070e-06 0.0000000000000000e+00  2.5710197913001439e-06 1.0088319755503680e-05 0.0000000000000000e+00  1.6681774894553924e-06 2.2835096954860880e-06 0.0000000000000000e+00  -6.6931409784181316e-06 -1.1174069986616735e-05 0.0000000000000000e+00  -8.8843962159270584e-06 -4.3809774411375385e-05 0.0000000000000000e+00  1.2105543608761983e-05 -8.0459975037577231e-05 0.0000000000000000e+00  3.0222008930479941e-05 -6.8767427781621487e-05 0.0000000000000000e+00  3.0349171569317960e-05 -4.9196080700933283e-05 0.0000000000000000e+00  1.8235350890937587e-05 -2.5487048641980294e-05 0.0000000000000000e+00  0.0000000000000000e+00 0.0000000000000000e+00 0.0000000000000000e+00  0.0000000000000000e+00 0.0000000000000000e+00 0.0000000000000000e+00  -5.2575841138251028e-05 -4.6506595741550233e-05 0.0000000000000000e+00  -9.5343064612000590e-05 -9.3474988005305925e-05 0.0000000000000000e+00  -1.1655930938427473e-04 -1.4129899610092957e-04 0.0000000000000000e+00  -9.9810688176292639e-05 -1.9021820426961251e-04 0.0000000000000000e+00  -6.6560780237071620e-05 -8.5854502271438343e-05 0.0000000000000000e+00  -7.0762059772391543e-05 4.1286193367847426e-06 0.0000000000000000e+00  -5.6243111082636142e-05 -1.0548288884798596e-05 0.0000000000000000e+00  -2.6546547360225388e-05 -1.5253909419545664e-05 0.0000000000000000e+00  -4.4527710945803526e-06 -1.6387548755966283e-05 0.0000000000000000e+00  1.7438263479714837e-05 -1.6359239299734552e-05 0.0000000000000000e+00  4.6165702211251707e-05 -1.7108575084871728e-05 0.0000000000000000e+00  7.2183026398012353e-05 1.3853011246794201e-05 0.0000000000000000e+00  7.0347414719527108e-05 -7.0530107374129313e-05 0.0000000000000000e+00  1.0749192106351149e-04 -1.8127912572883688e-04 0.0000000000000000e+00  1.2304552331789703e-04 -1.3594058370362995e-04 0.0000000000000000e+00  9.9958136789465288e-05 -9.0383526830078862e-05 0.0000000000000000e+00  5.4960467630784257e-05 -4.5080541307585305e-05 0.0000000000000000e+00  0.0000000000000000e+00 0.0000000000000000e+00 0.0000000000000000e+00  0.0000000000000000e+00 0.0000000000000000e+00 0.0000000000000000e+00  -1.2615038512661309e-04 -6.4470326905403149e-05 0.0000000000000000e+00  -2.4610804251509624e-04 -1.3190698971059792e-04 0.0000000000000000e+00  -3.5286466890864206e-04 -2.0585890404409694e-04 0.0000000000000000e+00  -4.3776284891567600e-04 -2.9127883008698571e-04 0.0000000000000000e+00  -4.2116235692399670e-04 -1.0313960211445891e-04 0.0000000000000000e+00  -4.3544637071219551e-04 8.3165259724399452e-05 0.0000000000000000e+00  -2.9942250600243064e-04 6.0487354354827516e-05 0.0000000000000000e+00  -1.4930565313370578e-04 4.8114992062370520e-05 0.0000000000000000e+00  6.1459059530687450e-06 4.5460318849527688e-05 0.0000000000000000e+00  1.6326953381761840e-04 5.2878496823268036e-05 0.0000000000000000e+00  3.1908872625651004e-04 7.2631661751161169e-05 0.0000000000000000e+00  4.6737465900783111e-04 1.1042521911819095e-04 0.0000000000000000e+00  4.5275849880113634e-04 -8.8750644498041066e-05 0.0000000000000000e+00  4.6308672498167623e-04 -2.8944531967643630e-04 0.0000000000000000e+00  3.7039629532316652e-04 -2.0397438838125516e-04 0.0000000000000000e+00  2.5718972294849453e-04 -1.3054636419076996e-04 0.0000000000000000e+00  1.3152529330531424e-04 -6.3779056953465571e-05 0.0000000000000000e+00  0.0000000000000000e+00 0.0000000000000000e+00 0.0000000000000000e+00  0.0000000000000000e+00 0.0000000000000000e+00 0.0000000000000000e+00  -2.2446179917782463e-04 -7.0561806262237276e-05 0.0000000000000000e+00  -4.4962292911642670e-04 -1.4426607512046504e-04 0.0000000000000000e+00  -6.7651143711886354e-04 -2.2452945740032462e-04 0.0000000000000000e+00  -9.0703290479008367e-04 -3.1530146269668135e-04 0.0000000000000000e+00  -9.0951783210853213e-04 -9.7929044408178907e-05 0.0000000000000000e+00  -9.0982794044737860e-04 1.2228414213770307e-04 0.0000000000000000e+00  -5.9903778067377255e-04 9.0313944839541757e-05 0.0000000000000000e+00  -2.9343216874873736e-04 7.2624491744767669e-05 0.0000000000000000e+00  1.0063111184357350e-05 6.7027110242866004e-05 0.0000000000000000e+00  3.1436635602797853e-04 7.2788907623732690e-05 0.0000000000000000e+00  6.2223644738195122e-04 9.0228667782395655e-05 0.0000000000000000e+00  9.3601499187569420e-04 1.2031561344888020e-04 0.0000000000000000e+00  9.3974545629850535e-04 -9.7207249661843980e-05 0.0000000000000000e+00  9.4082096125926466e-04 -3.1328075786894125e-04 0.0000000000000000e+00  6.9973082193481445e-04 -2.2381009363792994e-04 0.0000000000000000e+00  4.6420535022383201e-04 -1.4405055189073074e-04 0.0000000000000000e+00  2.3150392490867578e-04 -7.0515936133561550e-05 0.0000000000000000e+00  0.0000000000000000e+00 0.0000000000000000e+00 0.0000000000000000e+00  0.0000000000000000e+00 0.0000000000000000e+00 0.0000000000000000e+00  -3.1993000791298798e-04 -6.4079005955991147e-05 0.0000000000000000e+00  -6.4615299966820812e-04 -1.3037931234247870e-04 0.0000000000000000e+00  -9.8550543347625881e-04 -2.0115146028645798e-04 0.0000000000000000e+00  -1.3459656028279839e-03 -2.7865997556726348e-04 0.0000000000000000e+00  -1.3586824598736183e-03 -9.5690129211213073e-05 0.0000000000000000e+00  -1.3459164338731945e-03 8.6246971834391851e-05 0.0000000000000000e+00  -8.7803272402059245e-04 6.3054059362468266e-05 0.0000000000000000e+00  -4.2916959366723047e-04 4.8794948523092766e-05 0.0000000000000000e+00  1.0749301120867114e-05 4.3183472038123450e-05 0.0000000000000000e+00  4.5124884968893050e-04 4.6012670585599174e-05 0.0000000000000000e+00  9.0186336907080195e-04 5.7262618939668853e-05 0.0000000000000000e+00  1.3727470951446566e-03 7.7051528006926408e-05 0.0000000000000000e+00  1.3871155367255429e-03 -1.0344980941743846e-04 0.0000000000000000e+00  1.3752596313077910e-03 -2.8410353645248135e-04 0.0000000000000000e+00  1.0066724200247356e-03 -2.0478443565178422e-04 0.0000000000000000e+00  6.5984345330435902e-04 -1.3264309243161298e-04 0.0000000000000000e+00  3.2664399564125970e-04 -6.5171819327080265e-05 0.0000000000000000e+00  0.0000000000000000e+00 0.0000000000000000e+00 0.0000000000000000e+00  0.0000000000000000e+00 0.0000000000000000e+00 0.0000000000000000e+00  -3.9017830528779751e-04 -4.8710061974264546e-05 0.0000000000000000e+00  -7.9007947539997791e-04 -9.8601056946984278e-05 0.0000000000000000e+00  -1.2099316519743031e-03 -1.5082113418626912e-04 0.0000000000000000e+00  -1.6609815659248740e-03 -2.0644171032884072e-04 0.0000000000000000e+00  -1.6798963864286677e-03 -9.5791175084795449e-05 0.0000000000000000e+00  -1.6611643264052129e-03 1.4705813487843377e-05 0.0000000000000000e+00  -1.0810920969900933e-03 8.7513739987227255e-08 0.0000000000000000e+00  -5.2919984108486912e-04 -9.5954333337170474e-06 0.0000000000000000e+00  9.1093828342953712e-06 -1.4393488615205536e-05 0.0000000000000000e+00  5.4773312494185895e-04 -1.4417933200263762e-05 0.0000000000000000e+00  1.1005496868740730e-03 -9.8319456333087245e-06 0.0000000000000000e+00  1.6820898059087461e-03 -8.7943967660782124e-07 0.0000000000000000e+00  1.7019130677481263e-03 -1.0826387122131505e-04 0.0000000000000000e+00  1.6835420590354511e-03 -2.1531136054641064e-04 0.0000000000000000e+00  1.2264310275817848e-03 -1.5703766077474149e-04 0.0000000000000000e+00  8.0086923989360743e-04 -1.0254914578705395e-04 0.0000000000000000e+00  3.9550835317331534e-04 -5.0627763275823095e-05 0.0000000000000000e+00  0.0000000000000000e+00 0.0000000000000000e+00 0.0000000000000000e+00  0.0000000000000000e+00 0.0000000000000000e+00 0.0000000000000000e+00  -4.2149150123795649e-04 -2.8618447585249025e-05 0.0000000000000000e+00  -8.5411593057949954e-04 -5.7505916364472109e-05 0.0000000000000000e+00  -1.3094255811078792e-03 -8.6887218944321898e-05 0.0000000000000000e+00  -1.7998124990526638e-03 -1.1689705163879360e-04 0.0000000000000000e+00  -1.8211187556546728e-03 -9.6592019968851035e-05 0.0000000000000000e+00  -1.7997693956929399e-03 -7.6425860748365434e-05 0.0000000000000000e+00  -1.1715951116958888e-03 -8.2600671866191427e-05 0.0000000000000000e+00  -5.7497710911229131e-04 -8.7504750264295279e-05 0.0000000000000000e+00  6.2077111485749025e-06 -9.1044237740501525e-05 0.0000000000000000e+00  5.8751599826832221e-04 -9.3270429514233770e-05 0.0000000000000000e+00  1.1844946689454055e-03 -9.4374585644186400e-05 0.0000000000000000e+00  1.8132392396057449e-03 -9.4698550722351911e-05 0.0000000000000000e+00  1.8349349071378103e-03 -1.1098413872355863e-04 0.0000000000000000e+00  1.8138620381239049e-03 -1.2702714176376868e-04 0.0000000000000000e+00  1.3198413945481368e-03 -9.4148162359178043e-05 0.0000000000000000e+00  8.6099834947827702e-04 -6.2185875832041957e-05 0.0000000000000000e+00  4.2491344309248828e-04 -3.0910330426433177e-05 0.0000000000000000e+00  -6.3650133452399246e-12 3.8569532976481502e-12 0.0000000000000000e+00  0.0000000000000000e+00 0.0000000000000000e+00 0.0000000000000000e+00  -4.0823344872978963e-04 -7.4519670691457624e-06 0.0000000000000000e+00  -8.2732749964151391e-04 -1.4436253195808846e-05 0.0000000000000000e+00  -1.2684701260386804e-03 -2.0439958613014413e-05 0.0000000000000000e+00  -1.7435022575043857e-03 -2.4859220504066995e-05 0.0000000000000000e+00  -1.7641134974940304e-03 -9.8167487322231705e-05 0.0000000000000000e+00  -1.7434451264507946e-03 -1.7159908054218082e-04 0.0000000000000000e+00  -1.1360362041483647e-03 -1.7036646902448738e-04 0.0000000000000000e+00  -5.5909830297803747e-04 -1.7086629329664756e-04 0.0000000000000000e+00  2.8117830140526155e-06 -1.7294200070266675e-04 0.0000000000000000e+00  5.6469354864594661e-04 -1.7660558223663668e-04 0.0000000000000000e+00  1.1415379773912894e-03 -1.8203403428016624e-04 0.0000000000000000e+00  1.7487629298364755e-03 -1.8957189310152048e-04 0.0000000000000000e+00  1.7692358199791845e-03 -1.1224795271577802e-04 0.0000000000000000e+00  1.7485514825133323e-03 -3.4756860140920292e-05 0.0000000000000000e+00  1.2723984317645572e-03 -2.7593259883888130e-05 0.0000000000000000e+00  8.3000915285548482e-04 -1.9077051991392047e-05 0.0000000000000000e+00  4.0959207736566874e-04 -9.7340091979275101e-06 0.0000000000000000e+00  0.0000000000000000e+00 0.0000000000000000e+00 0.0000000000000000e+00  0.0000000000000000e+00 0.0000000000000000e+00 0.0000000000000000e+00  -3.5149337263078395e-04 1.1843409073193505e-05 0.0000000000000000e+00  -7.1226053177143389e-04 2.4710473977247769e-05 0.0000000000000000e+00  -1.0918165731119091e-03 3.9668405965608407e-05 0.0000000000000000e+00  -1.5001505292609966e-03 5.7869171439635191e-05 0.0000000000000000e+00  -1.5177304629093299e-03 -1.0027956671341648e-04 0.0000000000000000e+00  -1.5002093270360384e-03 -2.5851183989760535e-04 0.0000000000000000e+00  -9.7874970636826217e-04 -2.5121012860459049e-04 0.0000000000000000e+00  -4.8318056514663489e-04 -2.4793144785326549e-04 0.0000000000000000e+00  -4.6716652670993227e-07 -2.4849546569555720e-04 0.0000000000000000e+00  4.8210052748378301e-04 -2.5288899090918093e-04 0.0000000000000000e+00  9.7722454918842548e-04 -2.6126471015097604e-04 0.0000000000000000e+00  1.4979155415018976e-03 -2.7394189411724686e-04 0.0000000000000000e+00  1.5148188696693058e-03 -1.1230809271199454e-04 0.0000000000000000e+00  1.4969613912216165e-03 4.9455662501688959e-05 0.0000000000000000e+00  1.0897649402216096e-03 3.3549713507930175e-05 0.0000000000000000e+00  7.1105062950291254e-04 2.0723292301970376e-05 0.0000000000000000e+00  3.5093443586089253e-04 9.8773587538361311e-06 0.0000000000000000e+00  0.0000000000000000e+00 0.0000000000000000e+00 0.0000000000000000e+00  0.0000000000000000e+00 0.0000000000000000e+00 0.0000000000000000e+00  -2.5761117585317603e-04 2.7044624230047648e-05 0.0000000000000000e+00  -5.2195181575403181e-04 5.5496888986042629e-05 0.0000000000000000e+00  -7.9990982314332641e-04 8.6804798536535633e-05 0.0000000000000000e+00  -1.0986821942873244e-03 1.2249756118827177e-04 0.0000000000000000e+00  -1.1115320213072061e-03 -1.0270319257288519e-04 0.0000000000000000e+00  -1.0989655158756377e-03 -3.2795071767894511e-04 0.0000000000000000e+00  -7.1805175660873198e-04 -3.1597700160931527e-04 0.0000000000000000e+00  -3.5590781223034806e-04 -3.0964054304985142e-04 0.0000000000000000e+00  -3.1569558865754393e-06 -3.0874583216804072e-04 0.0000000000000000e+00  3.4936340787012574e-04 -3.1325902131476471e-04 0.0000000000000000e+00  7.1080791906403542e-04 -3.2330573800961015e-04 0.0000000000000000e+00  1.0905289334437775e-03 -3.3917310808449308e-04 0.0000000000000000e+00  1.1021818544409299e-03 -1.1141869163804783e-04 0.0000000000000000e+00  1.0889126616838373e-03 1.1642722226102770e-04 0.0000000000000000e+00  7.9306916842801609e-04 8.2374313746112540e-05 0.0000000000000000e+00  5.1761872975669546e-04 5.2601786579815699e-05 0.0000000000000000e+00  2.5551175640638641e-04 2.5614708127080440e-05 0.0000000000000000e+00  0.0000000000000000e+00 0.0000000000000000e+00 0.0000000000000000e+00  0.0000000000000000e+00 0.0000000000000000e+00 0.0000000000000000e+00  -1.3676062699180040e-04 3.6615965377874036e-05 0.0000000000000000e+00  -2.7708033804523636e-04 7.4860993334500644e-05 0.0000000000000000e+00  -4.2459927831670828e-04 1.1640287649475922e-04 0.0000000000000000e+00  -5.8311033405812921e-04 1.6298680607908291e-04 0.0000000000000000e+00  -5.9012872606185711e-04 -1.0521840851459380e-04 0.0000000000000000e+00  -5.8370121749969767e-04 -3.7343116972902562e-04 0.0000000000000000e+00  -3.8242067017580896e-04 -3.5820971118339609e-04 0.0000000000000000e+00  -1.9112900827641962e-04 -3.4959641604364390e-04 0.0000000000000000e+00  -4.9183395856318958e-06 -3.4738135896328576e-04 0.0000000000000000e+00  1.8100991854318516e-04 -3.5150942687941925e-04 0.0000000000000000e+00  3.7144596321273291e-04 -3.6208131957137966e-04 0.0000000000000000e+00  5.7127380491154970e-04 -3.7935318112778337e-04 0.0000000000000000e+00  5.7661259011572528e-04 -1.0980250493312641e-04 0.000000000000