<?xml version="1.0"?>
<VTKFile type="UnstructuredGrid"  version="0.1"  >
<UnstructuredGrid>
<Piece  NumberOfPoints="589" NumberOfCells="1080">
<Points>
<DataArray  type="Float64"  NumberOfComponents="3"  format="ascii">-9 0 0  -8 0 0  -7 0 0  -6 0 0  -5 0 0  -4 0 0  -3 0 0  -2 0 0  -1 0 0  0 0 0  1 0 0  2 0 0  3 0 0  4 0 0  5 0 0  6 0 0  7 0 0  8 0 0  9 0 0  -9 2 0  -7.99999491089492 2.000006961117482 0  -6.999989384005787 2.000013094009223 0  -5.999982378405794 2.000017728351241 0  -4.999971502668227 2.000020576241959 0  -3.9999825309411 2.000015278623583 0  -2.999993876541238 2.000010407557488 0  -1.999999520038626 2.000005897031579 0  -1.000000682878663 2.000002311000573 0  9.843856873338935e-07 2.000000662278789 0  1.000002959394286 2.000001540332341 0  2.000002833025865 2.000004647863191 0  2.999999035003917 2.000008392152973 0  3.99999120347496 2.000012140803155 0  4.999980116912589 2.000012828218166 0  5.999988367213496 2.000012730166609 0  6.999993212379631 2.000009990490527 0  7.999996784792585 2.000005453805279 0  9 2 0  -9.000000000009988 4 0  -7.99999157284371 4.000017235406729 0  -6.999984682846319 4.00003218242234 0  -5.999980237324054 4.000042602618249 0  -4.999978078698859 4.000046369716238 0  -3.999993808968384 4.000043742775015 0  -3.000004410665159 4.000030228614166 0  -2.000007356621361 4.000012724097694 0  -1.000003665040711 3.999998605395861 0  3.65486473120318e-06 3.99999270807879 0  1.000011207322263 3.999996541891118 0  2.000015718965043 4.000007501973585 0  3.00001394752356 4.0000222701907 0  4.000004939832216 4.00003667839048 0  4.999991025110483 4.00004003524922 0  5.999990354946882 4.00003602694833 0  6.99999151574443 4.000027169228105 0  7.999994998340394 4.000014576314623 0  9 4 0  -9 6 0  -7.99998208575244 6.000036664524362 0  -6.999970203743729 6.000069379273389 0  -5.999968948688623 6.000094090369569 0  -4.999979611216258 6.0001069433895 0  -4.000009861285656 6.000086759496368 0  -3.000023595238245 6.00004519125349 0  -2.000018072357164 6.000001753556051 0  -1.000004580140843 5.999977742696409 0  8.858048331143198e-06 5.999972734012901 0  1.000020744604389 5.999979907526953 0  2.000029721541544 6.000000074562241 0  3.000033171124044 6.000034157553958 0  4.000026540630529 6.000069104721923 0  5.000002033874245 6.000085353079525 0  5.999985018780809 6.000078722366794 0  6.999980531629366 6.000059289802553 0  7.999987135232753 6.000031633421816 0  9 6 0  -9 8 0  -7.999948466928974 8.000071898499883 0  -6.999913214659032 8.000138596871414 0  -5.999909988625184 8.000193016375192 0  -4.999952158370597 8.000223482494279 0  -4.000010756735535 8.000131345104226 0  -2.999998969576749 8.000023327890506 0  -1.999976177937541 7.9999713643741 0  -0.9999739967046483 7.999966310188102 0  1.287529920773367e-05 7.999964988227902 0  1.000002713567219 7.999959828545238 0  2.00000602698244 7.999979988997374 0  3.000030193698232 8.000014442585927 0  4.000038184107594 8.000101245591878 0  4.99998297973357 8.000199292048784 0  5.99992956664748 8.000172632997156 0  6.999925179903346 8.000124311488362 0  7.999954223651589 8.000064603031054 0  9 8 0  -9 10 0  -7.999849695543272 10.00012795652417 0  -6.999728084256887 10.00025696635406 0  -5.999669416632466 10.00038781594112 0  -4.999721285788383 10.00052069854303 0  -3.999814904823661 10.00022160411441 0  -2.999797992250666 9.999964725794172 0  -1.999834925562864 10.00001158255718 0  -0.9999168619769923 10.00002669269497 0  2.357708088629046e-05 10.00003036694731 0  0.9999650411705008 10.00002982480652 0  1.99988789580472 10.00003034007074 0  2.999818965342722 9.999941353230048 0  3.999826314442058 10.000169541937 0  4.999725915481203 10.00047074183894 0  5.999677951955824 10.00035323679431 0  6.999736070705374 10.00023490492631 0  7.999854358832747 10.00011716596528 0  9 10 0  -9 12 0  -7.999636014468837 12.00017985197909 0  -6.999290955774017 12.00036806245414 0  -5.998986265706226 12.0005746330307 0  -4.998748384252729 12.00081354724751 0  -3.998796983748468 12.00026564520488 0  -2.998752320712171 11.99972265995715 0  -1.999121706214784 11.99979175081383 0  -0.9995364882854025 11.9998311627026 0  3.055242864858324e-05 11.99984248640002 0  0.9995912386047611 11.99982487921569 0  1.999154999359536 11.99977227588764 0  2.998740172598455 11.99966920252752 0  3.998781852024639 12.0002148172969 0  4.998754227821417 12.00076444532128 0  5.999001732966971 12.00053724547671 0  6.999306147304821 12.00034318661824 0  7.999644998915715 12.00016747386029 0  9 12 0  -9 14 0  -7.999346341419344 14.00019837106322 0  -6.998691897151822 14.00040581792078 0  -5.998035101087014 14.00063222104491 0  -4.997372070908644 14.00088903102371 0  -3.997366344607389 14.00024473999557 0  -2.997361300475701 13.99959204004228 0  -1.99822743636788 13.99969074013301 0  -0.999083661189334 13.99974807860043 0  6.296897940195954e-05 13.99977041138912 0  0.9992054886276621 13.99976001564628 0  1.998337157048758 13.99971622907207 0  2.997452323812912 13.99963657020843 0  3.997442719308904 14.00023372243441 0  4.997440623018439 14.00082670724179 0  5.998097276204785 14.0005888854597 0  6.998738125396805 14.00037819964992 0  7.999370825014232 14.00018488890181 0  9 14 0  -9 16 0  -7.999059420384651 16.00018062552017 0  -6.998101602884984 16.00036782948552 0  -5.997107839654135 16.00056830292799 0  -4.996056223575473 16.00078882450919 0  -3.996020362619873 16.00023252195604 0  -2.996053876694459 15.99967900968567 0  -1.997373799620162 15.99975547744904 0  -0.99864271034816 15.99980525832804 0  0.0001117992354686771 15.99982946553319 0  0.9988635349884399 15.99982892385235 0  1.997586193999087 15.99980387713119 0  2.996251735623713 15.99975411795885 0  3.996211919957005 16.00024726210238 0  4.996246155181424 16.00074068645034 0  5.997255026132411 16.00053210882007 0  6.998202095381409 16.00034380158547 0  7.99911039167755 16.00016866282185 0  9 16 0  -9 18 0  -7.998841034389454 18.0001365762096 0  -6.997654354080864 18.00027680096474 0  -5.996410804663868 18.00042425495122 0  -4.995078278394597 18.00058233674152 0  -3.995023364101474 18.00022799078987 0  -2.995075305726164 17.99987397096091 0  -1.99672545815495 17.99992720550565 0  -0.9982960457045523 17.99996498382302 0  0.0001716606617998211 17.99998776185213 0  0.9986383532849087 17.99999609147001 0  1.997064769875042 17.99999060205485 0  2.995409813250034 17.99997207815012 0  3.995354085208831 18.00025793867667 0  4.995407051570477 18.00054272273573 0  5.996658842286781 18.00039432911251 0  6.997820447621715 18.00025677744768 0  7.998924310535031 18.00012654925833 0  9 18 0  -9 20 0  -7.99873312256432 20.00007792570398 0  -6.997433825863231 20.00015686340902 0  -5.996068440458666 20.0002377161714 0  -4.994600778334497 20.00032115503217 0  -3.994537829766625 20.00022654561307 0  -2.994598737803527 20.00013216363186 0  -1.996396762216962 20.00016093584028 0  -0.9981032329910056 20.00018489279473 0  0.0002355163049899693 20.0002040317261 0  0.9985748192854645 20.00021870759939 0  1.99687006212023 20.00022962246625 0  2.995075067069871 20.00023785566897 0  3.995013517886535 20.00026368726226 0  4.995074353028822 20.00028861260451 0  5.996422236133899 20.00021320158783 0  6.997669060881237 20.00014046839783 0  7.998850557702148 20.00006971315771 0  8.999999999973028 20.00000000000515 0  -9 22 0  -7.998754535405316 22.00001521845759 0  -6.997476906736125 22.00002926088009 0  -5.996133940479073 22.00004082918236 0  -4.994690436232287 22.00004837823444 0  -3.994628814740893 22.00022814589365 0  -2.994689119949387 22.00040802001865 0  -1.996435664318372 22.00041398458128 0  -0.9980919627482865 22.00042413559033 0  0.0002971342650333704 22.00043821431331 0  0.9986881389133251 22.00045642181708 0  1.997037629184012 22.00047941087312 0  2.995300953398771 22.00050829499671 0  3.995242447090004 22.00026580945326 0  4.99530195335038 22.00002253887843 0  5.996588744745956 22.00002136109118 0  6.997778319742962 22.00001624220332 0  7.99890471131365 22.00000869768927 0  9 22 0  -9 24 0  -7.99890425017468 23.99995721340303 0  -6.997780587163591 23.99991155048986 0  -5.996600346300588 23.99986001016035 0  -4.995333337697783 23.99979934565842 0  -3.995280396517598 24.00023175089571 0  -2.99533272655168 24.0006640910226 0  -1.99683687379858 24.00065023293034 0  -0.9982628887414939 24.00064761473041 0  0.0003511451248718972 24.00065582709 0  0.9989681786384748 24.00067494966574 0  1.997551236143066 24.00070554893845 0  2.996062455431271 24.00074868220583 0  3.996013880118351 24.00026458172363 0  4.996064612816754 23.99977975188157 0  5.997143034335439 23.99984528418135 0  6.998139668936546 23.99990171771085 0  7.999082984517546 23.99995229231777 0  9 24 0  -9 26 0  -7.999165229998764 25.99991071848601 0  -6.998309797157431 25.99981734933814 0  -5.997412553774812 25.9997156804714 0  -4.996451324319732 25.99960125652941 0  -3.996412518168384 26.00023644697652 0  -2.996451263729742 26.00087145408785 0  -1.99755187344219 26.00084140086011 0  -0.9985945800569663 26.00082765074148 0  0.0003932128614210636 26.00082967495829 0  0.9993848072197654 26.0008474414482 0  1.998353582889019 26.00088141367901 0  2.997272371650166 26.00093255232913 0  3.99723880548528 26.00026049470702 0  4.997275331533833 25.99958782578349 0  5.998023373028326 25.99970561293066 0  6.998713625988979 25.99981063909665 0  7.999366135672832 25.99990736352729 0  9 26 0  -9 28 0  -7.99950841058449 27.99988058029701 0  -6.999005422935356 27.9997563474201 0  -5.998479413360124 27.99962236518746 0  -4.997918223746754 27.99947345431498 0  -3.997897079972565 28.00024154227615 0  -2.997918385216515 28.00100936907032 0  -1.998499712950987 28.00096723356416 0  -0.999048822442572 28.00094446314166 0  0.0004201361626805799 28.00094042345703 0  0.9998933886142355 28.00095497445045 0  1.999357241139557 28.00098846960083 0  2.99879778462938 28.0010417563177 0  3.998782541231778 28.00025424597531 0  4.998801357467752 27.99946627559088 0  5.999133709781045 27.99961700622975 0  6.999437824938278 27.9997527857033 0 
[...]
<PointData  Vectors="f_42"> 
<DataArray  type="Float64"  Name="f_42"  NumberOfComponents="3" format="ascii">0.0000000000000000e+00 0.0000000000000000e+00 0.0000000000000000e+00  0.0000000000000000e+00 0.0000000000000000e+00 0.0000000000000000e+00  0.0000000000000000e+00 0.0000000000000000e+00 0.0000000000000000e+00  0.0000000000000000e+00 0.0000000000000000e+00 0.0000000000000000e+00  0.0000000000000000e+00 0.0000000000000000e+00 0.0000000000000000e+00  0.0000000000000000e+00 0.0000000000000000e+00 0.0000000000000000e+00  0.0000000000000000e+00 0.0000000000000000e+00 0.0000000000000000e+00  0.0000000000000000e+00 0.0000000000000000e+00 0.0000000000000000e+00  0.0000000000000000e+00 0.0000000000000000e+00 0.0000000000000000e+00  0.0000000000000000e+00 0.0000000000000000e+00 0.0000000000000000e+00  0.0000000000000000e+00 0.0000000000000000e+00 0.0000000000000000e+00  0.0000000000000000e+00 0.0000000000000000e+00 0.0000000000000000e+00  0.0000000000000000e+00 0.0000000000000000e+00 0.0000000000000000e+00  0.0000000000000000e+00 0.0000000000000000e+00 0.0000000000000000e+00  0.0000000000000000e+00 0.0000000000000000e+00 0.0000000000000000e+00  0.0000000000000000e+00 0.0000000000000000e+00 0.0000000000000000e+00  0.0000000000000000e+00 0.0000000000000000e+00 0.0000000000000000e+00  0.0000000000000000e+00 0.0000000000000000e+00 0.0000000000000000e+00  0.0000000000000000e+00 0.0000000000000000e+00 0.0000000000000000e+00  0.0000000000000000e+00 0.0000000000000000e+00 0.0000000000000000e+00  5.0891050728840524e-06 6.9611174836133401e-06 0.0000000000000000e+00  1.0615994220295148e-05 1.3094009223881680e-05 0.0000000000000000e+00  1.7621594206521314e-05 1.7728351242535935e-05 0.0000000000000000e+00  2.8497331761123478e-05 2.0576241957324264e-05 0.0000000000000000e+00  1.7469058901346977e-05 1.5278623584423022e-05 0.0000000000000000e+00  6.1234587580137249e-06 1.0407557489138748e-05 0.0000000000000000e+00  4.7996137559857714e-07 5.8970315786659640e-06 0.0000000000000000e+00  -6.8287866414991896e-07 2.3110005748499719e-06 0.0000000000000000e+00  9.8438568733389352e-07 6.6227878786210359e-07 0.0000000000000000e+00  2.9593942874881346e-06 1.5403323421902418e-06 0.0000000000000000e+00  2.8330258650144795e-06 4.6478631949260689e-06 0.0000000000000000e+00  -9.6499608111329949e-07 8.3921529705752973e-06 0.0000000000000000e+00  -8.7965250380277047e-06 1.2140803155558060e-05 0.0000000000000000e+00  -1.9883087413308470e-05 1.2828218165693581e-05 0.0000000000000000e+00  -1.1632786505156926e-05 1.2730166609536507e-05 0.0000000000000000e+00  -6.7876203740815807e-06 9.9904905257135581e-06 0.0000000000000000e+00  -3.2152074265748179e-06 5.4538052799654968e-06 0.0000000000000000e+00  0.0000000000000000e+00 0.0000000000000000e+00 0.0000000000000000e+00  -9.9873901165806172e-12 0.0000000000000000e+00 0.0000000000000000e+00  8.4271562966729671e-06 1.7235406728121848e-05 0.0000000000000000e+00  1.5317153685463796e-05 3.2182422338257409e-05 0.0000000000000000e+00  1.9762675944676884e-05 4.2602618248843244e-05 0.0000000000000000e+00  2.1921301135766275e-05 4.6369716240173110e-05 0.0000000000000000e+00  6.1910316154224726e-06 4.3742775015929677e-05 0.0000000000000000e+00  -4.4106651611430437e-06 3.0228614168619325e-05 0.0000000000000000e+00  -7.3566213612085580e-06 1.2724097691104659e-05 0.0000000000000000e+00  -3.6650407107953891e-06 -1.3946041399922123e-06 0.0000000000000000e+00  3.6548647312031799e-06 -7.2919212088959638e-06 0.0000000000000000e+00  1.1207322263051561e-05 -3.4581088747066137e-06 0.0000000000000000e+00  1.5718965043018565e-05 7.5019735837973442e-06 0.0000000000000000e+00  1.3947523561311220e-05 2.2270190697939009e-05 0.0000000000000000e+00  4.9398322141875728e-06 3.6678390481754011e-05 0.0000000000000000e+00  -8.9748895231127465e-06 4.0035249220664138e-05 0.0000000000000000e+00  -9.6450531256353436e-06 3.6026948333331260e-05 0.0000000000000000e+00  -8.4842555662813168e-06 2.7169228105070616e-05 0.0000000000000000e+00  -5.0016595977376460e-06 1.4576314623071215e-05 0.0000000000000000e+00  0.0000000000000000e+00 0.0000000000000000e+00 0.0000000000000000e+00  0.0000000000000000e+00 0.0000000000000000e+00 0.0000000000000000e+00  1.7914247544359588e-05 3.6664524356625625e-05 0.0000000000000000e+00  2.9796256274438730e-05 6.9379273392366757e-05 0.0000000000000000e+00  3.1051311367321220e-05 9.4090369574189247e-05 0.0000000000000000e+00  2.0388783743681589e-05 1.0694338950463793e-04 0.0000000000000000e+00  -9.8612856560904576e-06 8.6759496373681267e-05 0.0000000000000000e+00  -2.3595238243853028e-05 4.5191253491325507e-05 0.0000000000000000e+00  -1.8072357163357858e-05 1.7535560421649296e-06 0.0000000000000000e+00  -4.5801408433187262e-06 -2.2257303589786462e-05 0.0000000000000000e+00  8.8580483311431975e-06 -2.7265987103627905e-05 0.0000000000000000e+00  2.0744604388514310e-05 -2.0092473043197966e-05 0.0000000000000000e+00  2.9721541546301836e-05 7.4562236479120572e-08 0.0000000000000000e+00  3.3171124042614435e-05 3.4157553960695842e-05 0.0000000000000000e+00  2.6540630524576916e-05 6.9104721925072939e-05 0.0000000000000000e+00  2.0338742495608999e-06 8.5353079526559824e-05 0.0000000000000000e+00  -1.4981219198184202e-05 7.8722366795887022e-05 0.0000000000000000e+00  -1.9468370636454437e-05 5.9289802552161481e-05 0.0000000000000000e+00  -1.2864767247026646e-05 3.1633421814934795e-05 0.0000000000000000e+00  0.0000000000000000e+00 0.0000000000000000e+00 0.0000000000000000e+00  0.0000000000000000e+00 0.0000000000000000e+00 0.0000000000000000e+00  5.1533071013227047e-05 7.1898499883624723e-05 0.0000000000000000e+00  8.6785340965914157e-05 1.3859687141288499e-04 0.0000000000000000e+00  9.0011374816849300e-05 1.9301637519326232e-04 0.0000000000000000e+00  4.7841629402313171e-05 2.2348249428760577e-04 0.0000000000000000e+00  -1.0756735534612885e-05 1.3134510423220885e-04 0.0000000000000000e+00  1.0304232505738883e-06 2.3327890505367222e-05 0.0000000000000000e+00  2.3822062458651881e-05 -2.8635625898141901e-05 0.0000000000000000e+00  2.6003295351028673e-05 -3.3689811898967838e-05 0.0000000000000000e+00  1.2875299207733672e-05 -3.5011772103357880e-05 0.0000000000000000e+00  2.7135672204077005e-06 -4.0171454778812284e-05 0.0000000000000000e+00  6.0269824404085400e-06 -2.0011002638133607e-05 0.0000000000000000e+00  3.0193698230403156e-05 1.4442585933968376e-05 0.0000000000000000e+00  3.8184107595813307e-05 1.0124559188012343e-04 0.0000000000000000e+00  -1.7020266440015494e-05 1.9929204877753580e-04 0.0000000000000000e+00  -7.0433352521842116e-05 1.7263299715705198e-04 0.0000000000000000e+00  -7.4820096652789063e-05 1.2431148835286918e-04 0.0000000000000000e+00  -4.5776348416480160e-05 6.4603031054630823e-05 0.0000000000000000e+00  0.0000000000000000e+00 0.0000000000000000e+00 0.0000000000000000e+00  0.0000000000000000e+00 0.0000000000000000e+00 0.0000000000000000e+00  1.5030445672911869e-04 1.2795652417665787e-04 0.0000000000000000e+00  2.7191574311791618e-04 2.5696635406709093e-04 0.0000000000000000e+00  3.3058336753118790e-04 3.8781594112831510e-04 0.0000000000000000e+00  2.7871421161204256e-04 5.2069854303487531e-04 0.0000000000000000e+00  1.8509517634327676e-04 2.2160411440813141e-04 0.0000000000000000e+00  2.0200774933245999e-04 -3.5274205817541241e-05 0.0000000000000000e+00  1.6507443713165338e-04 1.1582557187651029e-05 0.0000000000000000e+00  8.3138023007480242e-05 2.6692694966554957e-05 0.0000000000000000e+00  2.3577080886290465e-05 3.0366947307408620e-05 0.0000000000000000e+00  -3.4958829496897005e-05 2.9824806519846792e-05 0.0000000000000000e+00  -1.1210419527718079e-04 3.0340070730122803e-05 0.0000000000000000e+00  -1.8103465728092321e-04 -5.8646769958869802e-05 0.0000000000000000e+00  -1.7368555793899392e-04 1.6954193699535134e-04 0.0000000000000000e+00  -2.7408451879341601e-04 4.7074183893058450e-04 0.0000000000000000e+00  -3.2204804416671474e-04 3.5323679431083671e-04 0.0000000000000000e+00  -2.6392929462933491e-04 2.3490492630513974e-04 0.0000000000000000e+00  -1.4564116725844511e-04 1.1716596527724233e-04 0.0000000000000000e+00  0.0000000000000000e+00 0.0000000000000000e+00 0.0000000000000000e+00  0.0000000000000000e+00 0.0000000000000000e+00 0.0000000000000000e+00  3.6398553116433934e-04 1.7985197909121004e-04 0.0000000000000000e+00  7.0904422598369664e-04 3.6806245413558618e-04 0.0000000000000000e+00  1.0137342937714198e-03 5.7463303071231839e-04 0.0000000000000000e+00  1.2516157472753681e-03 8.1354724750939251e-04 0.0000000000000000e+00  1.2030162515320924e-03 2.6564520487468938e-04 0.0000000000000000e+00  1.2476792878281212e-03 -2.7734004285714258e-04 0.0000000000000000e+00  8.7829378521692906e-04 -2.0824918617217103e-04 0.0000000000000000e+00  4.6351171459864821e-04 -1.6883729740803794e-04 0.0000000000000000e+00  3.0552428648583237e-05 -1.5751359996906417e-04 0.0000000000000000e+00  -4.0876139524049989e-04 -1.7512078431525325e-04 0.0000000000000000e+00  -8.4500064046584946e-04 -2.2772411236590890e-04 0.0000000000000000e+00  -1.2598274015452287e-03 -3.3079747250093993e-04 0.0000000000000000e+00  -1.2181479753573974e-03 2.1481729690711054e-04 0.0000000000000000e+00  -1.2457721785909793e-03 7.6444532129032452e-04 0.0000000000000000e+00  -9.9826703302963540e-04 5.3724547672146460e-04 0.0000000000000000e+00  -6.9385269517512722e-04 3.4318661824733716e-04 0.0000000000000000e+00  -3.5500108429085638e-04 1.6747386029776056e-04 0.0000000000000000e+00  0.0000000000000000e+00 0.0000000000000000e+00 0.0000000000000000e+00  0.0000000000000000e+00 0.0000000000000000e+00 0.0000000000000000e+00  6.5365858064340022e-04 1.9837106321857125e-04 0.0000000000000000e+00  1.3081028481751807e-03 4.0581792077201489e-04 0.0000000000000000e+00  1.9648989129846975e-03 6.3222104490779946e-04 0.0000000000000000e+00  2.6279290913517063e-03 8.8903102371130634e-04 0.0000000000000000e+00  2.6336553926094085e-03 2.4473999558264118e-04 0.0000000000000000e+00  2.6386995243006723e-03 -4.0795995772254250e-04 0.0000000000000000e+00  1.7725636321216953e-03 -3.0925986700349692e-04 0.0000000000000000e+00  9.1633881066767616e-04 -2.5192139957571188e-04 0.0000000000000000e+00  6.2968979401959542e-05 -2.2958861088838588e-04 0.0000000000000000e+00  -7.9451137233916907e-04 -2.3998435371807336e-04 0.0000000000000000e+00  -1.6628429512385086e-03 -2.8377092792620422e-04 0.0000000000000000e+00  -2.5476761870875373e-03 -3.6342979157900934e-04 0.0000000000000000e+00  -2.5572806911019728e-03 2.3372243440424994e-04 0.0000000000000000e+00  -2.5593769815567729e-03 8.2670724179006018e-04 0.0000000000000000e+00  -1.9027237952157583e-03 5.8888545968932028e-04 0.0000000000000000e+00  -1.2618746031938129e-03 3.7819964990828096e-04 0.0000000000000000e+00  -6.2917498576523531e-04 1.8488890181034932e-04 0.0000000000000000e+00  0.0000000000000000e+00 0.0000000000000000e+00 0.0000000000000000e+00  0.0000000000000000e+00 0.0000000000000000e+00 0.0000000000000000e+00  9.4057961536430377e-04 1.8062552017413392e-04 0.0000000000000000e+00  1.8983971150129009e-03 3.6782948552162320e-04 0.0000000000000000e+00  2.8921603458659313e-03 5.6830292799069689e-04 0.0000000000000000e+00  3.9437764245254326e-03 7.8882450918892435e-04 0.0000000000000000e+00  3.9796373801262441e-03 2.3252195606506551e-04 0.0000000000000000e+00  3.9461233055415896e-03 -3.2099031432156639e-04 0.0000000000000000e+00  2.6262003798365493e-03 -2.4452255096953757e-04 0.0000000000000000e+00  1.3572896518391781e-03 -1.9474167196890593e-04 0.0000000000000000e+00  1.1179923546867710e-04 -1.7053446680844353e-04 0.0000000000000000e+00  -1.1364650115614043e-03 -1.7107614765469553e-04 0.0000000000000000e+00  -2.4138060009149692e-03 -1.9612286881729737e-04 0.0000000000000000e+00  -3.7482643762817569e-03 -2.4588204115602580e-04 0.0000000000000000e+00  -3.7880800429964711e-03 2.4726210240543330e-04 0.0000000000000000e+00  -3.7538448185714815e-03 7.4068645033190301e-04 0.0000000000000000e+00  -2.7449738675851742e-03 5.3210882008393164e-04 0.0000000000000000e+00  -1.7979046185939756e-03 3.4380158547872255e-04 0.0000000000000000e+00  -8.8960832244722567e-04 1.6866282184019283e-04 0.0000000000000000e+00  0.0000000000000000e+00 0.0000000000000000e+00 0.0000000000000000e+00  0.0000000000000000e+00 0.0000000000000000e+00 0.0000000000000000e+00  1.1589656105581857e-03 1.3657620959934134e-04 0.0000000000000000e+00  2.3456459191366430e-03 2.7680096474156962e-04 0.0000000000000000e+00  3.5891953361337696e-03 4.2425495122649866e-04 0.0000000000000000e+00  4.9217216054024205e-03 5.8233674154608336e-04 0.0000000000000000e+00  4.9766358985257504e-03 2.2799078985591501e-04 0.0000000000000000e+00  4.9246942738356012e-03 -1.2602903907637053e-04 0.0000000000000000e+00  3.2745418450511156e-03 -7.2794494351210217e-05 0.0000000000000000e+00  1.7039542954450061e-03 -3.5016176982586936e-05 0.0000000000000000e+00  1.7166066179982107e-04 -1.2238147857728506e-05 0.0000000000000000e+00  -1.3616467150904675e-03 -3.9085299926621302e-06 0.0000000000000000e+00  -2.9352301249610147e-03 -9.3979451717182000e-06 0.0000000000000000e+00  -4.5901867499658199e-03 -2.7921849897922638e-05 0.0000000000000000e+00  -4.6459147911657867e-03 2.5793867666889158e-04 0.0000000000000000e+00  -4.5929484295215636e-03 5.4272273571032224e-04 0.0000000000000000e+00  -3.3411577132135082e-03 3.9432911250039280e-04 0.0000000000000000e+00  -2.1795523782792751e-03 2.5677744768822289e-04 0.0000000000000000e+00  -1.0756894649656592e-03 1.2654925834718151e-04 0.0000000000000000e+00  0.0000000000000000e+00 0.0000000000000000e+00 0.0000000000000000e+00  0.0000000000000000e+00 0.0000000000000000e+00 0.0000000000000000e+00  1.2668774356907587e-03 7.7925703973262669e-05 0.0000000000000000e+00  2.5661741367697770e-03 1.5686340901868338e-04 0.0000000000000000e+00  3.9315595413302274e-03 2.3771617141313356e-04 0.0000000000000000e+00  5.3992216655012679e-03 3.2115503218140142e-04 0.0000000000000000e+00  5.4621702333766805e-03 2.2654561308203878e-04 0.0000000000000000e+00  5.4012621964699857e-03 1.3216363185166382e-04 0.0000000000000000e+00  3.6032377830382996e-03 1.6093584028163053e-04 0.0000000000000000e+00  1.8967670089939980e-03 1.8489279473212240e-04 0.0000000000000000e+00  2.3551630498996930e-04 2.0403172611961875e-04 0.0000000000000000e+00  -1.4251807145347504e-03 2.1870759939780646e-04 0.0000000000000000e+00  -3.1299378797660601e-03 2.2962246623800447e-04 0.0000000000000000e+00  -4.9249329301261531e-03 2.3785566893812500e-04 0.0000000000000000e+00  -4.9864821134603179e-03 2.6368726223534062e-04 0.0000000000000000e+00  -4.9256469711789425e-03 2.8861260452183753e-04 0.0000000000000000e+00  -3.5777638660998931e-03 2.1320158779886369e-04 0.0000000000000000e+00  -2.3309391187656130e-03 1.4046839782575512e-04 0.0000000000000000e+00  -1.1494422978681571e-03 6.9713157676924795e-05 0.0000000000000000e+00  -2.6969254289771244e-11 5.1572607701124194e-12 0.0000000000000000e+00  0.0000000000000000e+00 0.0000000000000000e+00 0.0000000000000000e+00  1.2454645946870715e-03 1.5218457590683595e-05 0.0000000000000000e+00  2.5230932638694433e-03 2.9260880092254097e-05 0.0000000000000000e+00  3.8660595209231950e-03 4.0829182371088911e-05 0.0000000000000000e+00  5.3095637677165967e-03 4.8378234442626740e-05 0.0000000000000000e+00  5.3711852591047313e-03 2.2814589367921385e-04 0.0000000000000000e+00  5.3108800506119335e-03 4.0802001866273682e-04 0.0000000000000000e+00  3.5643356816323470e-03 4.1398458130905054e-04 0.0000000000000000e+00  1.9080372517125662e-03 4.2413559034293146e-04 0.0000000000000000e+00  2.9713426503337036e-04 4.3821431330946803e-04 0.0000000000000000e+00  -1.3118610866747636e-03 4.5642181705082135e-04 0.0000000000000000e+00  -2.9623708159896350e-03 4.7941087310838837e-04 0.0000000000000000e+00  -4.6990466012298135e-03 5.0829499669331041e-04 0.0000000000000000e+00  -4.7575529099891916e-03 2.6580945326861865e-04 0.0000000000000000e+00  -4.6980466496210765e-03 2.2538878442336646e-05 0.0000000000000000e+00  -3.4112552540477106e-03 2.1361091188851464e-05 0.0000000000000000e+00  -2.2216802570424144e-03 1.6242203327169427e-05 0.0000000000000000e+00  -1.0952886863520484e-03 8.6976892900065133e-06 0.0000000000000000e+00  0.0000000000000000e+00 0.0000000000000000e+00 0.0000000000000000e+00  0.0000000000000000e+00 0.0000000000000000e+00 0.0000000000000000e+00  1.0957498253354673e-03 -4.2786596979615095e-05 0.0000000000000000e+00  2.2194128364088515e-03 -8.8449510125384039e-05 0.0000000000000000e+00  3.3996536994049522e-03 -1.3998983963560730e-04 0.0000000000000000e+00  4.6666623022242216e-03 -2.0065434159376744e-04 0.0000000000000000e+00  4.7196034824012441e-03 2.3175089572731464e-04 0.0000000000000000e+00  4.6672734483203431e-03 6.6409102258404033e-04 0.0000000000000000e+00  3.1631262014207204e-03 6.5023293032561845e-04 0.0000000000000000e+00  1.7371112585056088e-03 6.4761473040022513e-04 0.0000000000000000e+00  3.5114512487189725e-04 6.5582708999749599e-04 0.0000000000000000e+00  -1.0318213615272231e-03 6.7494966572578439e-04 0.0000000000000000e+00  -2.4487638569297243e-03 7.0554893847463412e-04 0.0000000000000000e+00  -3.9375445687302923e-03 7.4868220583822957e-04 0.0000000000000000e+00  -3.9861198816598421e-03 2.6458172363928983e-04 0.0000000000000000e+00  -3.9353871832466716e-03 -2.2024811844903970e-04 0.0000000000000000e+00  -2.8569656645603845e-03 -1.5471581863151499e-04 0.0000000000000000e+00  -1.8603310634592656e-03 -9.8282289162817313e-05 0.0000000000000000e+00  -9.1701548244822566e-04 -4.7707682226995866e-05 0.0000000000000000e+00  0.0000000000000000e+00 0.0000000000000000e+00 0.0000000000000000e+00  0.0000000000000000e+00 0.0000000000000000e+00 0.0000000000000000e+00  8.3477000122684944e-04 -8.9281513983305991e-05 0.0000000000000000e+00  1.6902028425683573e-03 -1.8265066186451260e-04 0.0000000000000000e+00  2.5874462251904125e-03 -2.8431952859527096e-04 0.0000000000000000e+00  3.5486756802737352e-03 -3.9874347058811119e-04 0.0000000000000000e+00  3.5874818316126030e-03 2.3644697652346972e-04 0.0000000000000000e+00  3.5487362702606873e-03 8.7145408786372608e-04 0.0000000000000000e+00  2.4481265578075203e-03 8.4140086011681356e-04 0.0000000000000000e+00  1.4054199430344790e-03 8.2765074149939181e-04 0.0000000000000000e+00  3.9321286142106365e-04 8.2967495830289914e-04 0.0000000000000000e+00  -6.1519278023401951e-04 8.4744144821837560e-04 0.0000000000000000e+00  -1.6464171109803812e-03 8.8141367897880216e-04 0.0000000000000000e+00  -2.7276283498349125e-03 9.3255232913440149e-04 0.0000000000000000e+00  -2.7611945147161211e-03 2.6049470703491272e-04 0.0000000000000000e+00  -2.7246684661715935e-03 -4.1217421649145477e-04 0.0000000000000000e+00  -1.9766269716760985e-03 -2.9438706936215964e-04 0.0000000000000000e+00  -1.2863740110226512e-03 -1.8936090333034988e-04 0.0000000000000000e+00  -6.3386432716424160e-04 -9.2636472687880847e-05 0.0000000000000000e+00  0.0000000000000000e+00 0.0000000000000000e+00 0.0000000000000000e+00  0.0000000000000000e+00 0.0000000000000000e+00 0.0000000000000000e+00  4.9158941551042160e-04 -1.1941970298618012e-04 0.0000000000000000e+00  9.9457706464268114e-04 -2.4365257990235331e-04 0.0000000000000000e+00  1.5205866398720761e-03 -3.7763481253760004e-04 0.0000000000000000e+00  2.0817762532464564e-03 -5.2654568503763004e-04 0.0000000000000000e+00  2.1029200274297302e-03 2.4154227613972158e-04 0.0000000000000000e+00  2.0816147834855172e-03 1.0093690702954379e-03 0.0000000000000000e+00  1.5002870490117856e-03 9.6723356412313217e-04 0.0000000000000000e+00  9.5117755742773677e-04 9.4446314165937595e-04 0.0000000000000000e+00  4.2013616268057988e-04 9.4042345701255900e-04 0.0000000000000000e+00  -1.0661138576480983e-04 9.5497445043918078e-04 0.0000000000000000e+00  -6.4275886044155145e-04 9.8846960083583926e-04 0.0000000000000000e+00  -1.2022153706159099e-03 1.0417563176843259e-03 0.0000000000000000e+00  -1.2174587682232433e-03 2.5424597531436860e-04 0.0000000000000000e+00  -1.1986425322507684e-03 -5.3372440912243923e-04 0.0000000000000000e+00  -8.6629021895506776e-04 -3.8299377024026803e-04 0.00000