<?xml version="1.0"?>
<VTKFile type="UnstructuredGrid"  version="0.1"  >
<UnstructuredGrid>
<Piece  NumberOfPoints="589" NumberOfCells="1080">
<Points>
<DataArray  type="Float64"  NumberOfComponents="3"  format="ascii">-9 0 0  -8 0 0  -7 0 0  -6 0 0  -5 0 0  -4 0 0  -3 0 0  -2 0 0  -1 0 0  0 0 0  1 0 0  2 0 0  3 0 0  4 0 0  5 0 0  6 0 0  7 0 0  8 0 0  9 0 0  -9 2 0  -8.000007066998833 1.999989484884385 0  -7.000014817052491 1.999980258073666 0  -6.000024858673796 1.999973364825344 0  -5.000040871120359 1.999969261269963 0  -4.000024318760586 1.999977067081613 0  -3.00000729131981 1.999984423324978 0  -1.99999895672464 1.999991308237541 0  -0.999997499699804 1.999996751546311 0  -3.419239280580856e-07 1.999999151181235 0  0.9999964918065253 1.999997534208947 0  1.99999685585179 1.999992304168277 0  3.000003334429346 1.999985899307682 0  4.000016713594133 1.999979085512563 0  5.000036052826213 1.999976434706361 0  6.000021704655434 1.999977359569159 0  7.000012891659424 1.999982513531511 0  8.000006153152421 1.999990528113695 0  9 2 0  -9 4 0  -8.000011401627185 3.999973817177285 0  -7.000020467859418 3.999951182367034 0  -6.000025833973063 3.999935571133935 0  -5.000027782287164 3.99993029782033 0  -4.000003746467855 3.999933973298421 0  -2.999987590145142 3.999954636269426 0  -1.999983292083678 3.999981511079643 0  -0.9999892843915889 4.000003132695504 0  -8.824786136594711e-07 4.000011883255763 0  0.9999872604831143 4.000005176795481 0  1.999980389455898 3.999986959421562 0  2.999983746814091 3.999962306602705 0  3.999998922123416 3.99993758296975 0  5.000022088405834 3.999929526797982 0  6.000021268477915 3.999937803143339 0  7.000017485203838 3.999953585242979 0  8.000009964631602 3.999975227695931 0  9 4 0  -9 6 0  -8.000025077043864 5.999943960487078 0  -7.000040919078253 5.999894015185697 0  -6.00004048048706 5.999856428487076 0  -5.000021743823132 5.999837203093738 0  -3.999974938591358 5.999867850666627 0  -2.999953618518427 5.999931748618445 0  -1.999961955013995 5.999998700255724 0  -0.9999828136785928 6.000035911960742 0  -3.896683721459419e-06 6.00004342325875 0  0.9999771869783068 6.000031459873277 0  1.999962809276131 5.999998311992575 0  2.999957464545802 5.999942309410497 0  3.999968521451074 5.999884296740036 0  5.0000082822615 5.999855720259084 0  6.000032685640672 5.999868226301182 0  7.000037027120958 5.999901218522595 0  8.000023551147857 5.999947410704807 0  9 6 0  -9 8 0  -8.000075683975911 7.999889741072136 0  -7.000126487430168 7.999787428774968 0  -6.00012831618986 7.999703855587134 0  -5.000060567721963 7.999656807544973 0  -3.999970053518426 7.99979802725537 0  -2.999986786147924 7.999963908778729 0  -2.000020787692516 8.000044676998053 0  -1.0000236843515 8.000053798053045 0  -3.443603492182595e-06 8.000056438399982 0  1.000011755581075 8.000064540134787 0  2.000005674774898 8.000031021842608 0  2.999966599711042 7.999973936822117 0  3.99995347464706 7.999832362986017 0  5.000042098571074 7.999672595292161 0  6.000124339616507 7.999716725518798 0  7.0001278265082 7.999796067826515 0  8.000077427800454 7.999894017239392 0  9 8 0  -9 10 0  -8.000225741671308 9.999803792586574 0  -7.000407876871671 9.999605975319836 0  -6.000494388160407 9.999405328766938 0  -5.000412830925975 9.999201560650897 0  -4.000269299957062 9.999657600957756 0  -3.000292911926579 10.00004965668607 0  -2.00023473091459 9.99998186812099 0  -1.000108607743549 9.999960116397054 0  -1.577915279633244e-05 9.99995481228718 0  1.00007623578394 9.999955248907877 0  2.000198605284844 9.99995290525656 0  3.000306491411397 10.00009340142457 0  4.000293198638436 9.999723451004215 0  5.000455552519595 9.999235246614329 0  6.000530858378951 9.999424493402106 0  7.00043407262504 9.999616554037052 0  8.000239358320719 9.999808531755612 0  9 10 0  -9 12 0  -8.000549894583592 11.99972440628666 0  -7.001071222164197 11.99943604616579 0  -6.001531691206302 11.99911964958148 0  -5.001891246725971 11.99875391849178 0  -4.001817856945361 11.99958570162729 0  -3.001884404608055 12.00040921075881 0  -2.001295754110076 12.00030921379043 0  -1.000640732318533 12.00025486307296 0  3.949133886820803e-05 12.00024385090198 0  1.000726629253087 12.00027785747717 0  2.001405316342514 12.00036685475257 0  3.002045088719735 12.00053584203445 0  4.001974842305585 11.99964822329333 0  5.002021458626833 11.99875328435236 0  6.001624997583304 11.99912127479891 0  7.001131659795631 11.9994375370602 0  8.000579636725583 11.99972518647379 0  9 12 0  -9 14 0  -8.000987632591658 13.99969622454052 0  -7.001976908376793 13.99937850330724 0  -6.002970778249329 13.99903165956171 0  -5.003975561738605 13.99863810253179 0  -4.003985929471441 13.99961075890943 0  -3.00399213211698 14.0005957308426 0  -2.002623550635728 14.00045423041136 0  -1.001274231258071 14.00037648171453 0  6.726072707488256e-05 14.00035302201074 0  1.001411820223979 14.00038075752722 0  2.002769578482583 14.00046121015499 0  3.004148547261224 14.00059876458406 0  4.004159486316663 13.99961350263228 0  5.004165349700398 13.99863438218264 0  6.003105006222788 13.99902550449007 0  7.002063029693519 13.99937329157775 0  8.001029772388332 13.99969335994527 0  9 14 0  -9 16 0  -8.001417865618754 15.99972391844562 0  -7.002862682993578 15.99943764630417 0  -6.004363739899593 15.99913081703657 0  -5.005955100357284 15.99879287811664 0  -4.006011677738118 15.99962345803577 0  -3.005958492753306 16.00044964466976 0  -2.003876709469437 16.00034498760678 0  -1.001877479324582 16.00028154632611 0  8.279623940997188e-05 16.00025795549514 0  1.002045331481354 16.00027332336148 0  2.004051358737551 16.0003276913988 0  3.006144752216319 16.00042182548279 0  4.006204729510283 15.99958798192583 0  5.006152295046653 15.99875350391434 0  6.004508779541676 15.99910343908192 0  7.002957846198543 15.9994201757589 0  8.001464968565172 15.99971538049861 0  9 16 0  -9 18 0  -8.001739308010755 17.9997923989588 0  -7.003521738414526 17.99957911497518 0  -6.005392656573278 17.99935456976194 0  -5.007401893572014 17.99911341867486 0  -4.007487343345624 17.9996265371988 0  -3.007405233873614 18.00013899797205 0  -2.004802738798151 18.00007149494872 0  -1.002326355362619 18.00002784536554 0  8.923360480621324e-05 18.00000768292968 0  1.002506180124279 18.00001050299658 0  2.004986548029281 18.00003569650298 0  3.007595349386114 18.00008242698567 0  4.007682387665183 17.99956891667214 0  5.007599493894034 17.99905692639448 0  6.00553906476949 17.9993144006675 0  7.003618456415153 17.9995533309557 0  8.00178739600903 17.99977979407277 0  9 18 0  -9 20 0  -8.001887349772804 19.99988359592444 0  -7.003825040662448 19.99976565211212 0  -6.005865335240934 19.99964479883292 0  -5.008064338750422 19.9995200007848 0  -4.008161844540569 19.99962675782903 0  -3.008065779771476 19.99973278884621 0  -2.005227799112595 19.99970304015685 0  -1.002533707069874 19.99968066215501 0  9.016917900683783e-05 19.99966594488545 0  1.002714835474398 19.99965863780783 0  2.00541126132275 19.99965796873454 0  3.008253020544912 19.99966259724771 0  4.008350959082289 19.99955943705934 0  5.008254315478769 19.99945731862868 0  6.006006818688852 19.99959960342758 0  7.003918876876864 19.99973638573866 0  8.001934120022169 19.99986922151111 0  8.999999999993983 19.9999999999934 0  -9 22 0  -8.001833185165099 21.99998093430097 0  -7.003716136749069 21.99996382283685 0  -6.005700180416627 21.99995080994718 0  -5.00783974722289 21.99994442397781 0  -4.007935213982112 21.9996230489104 0  -3.007840683326396 21.99930086473461 0  -2.00508082691569 21.99930525279371 0  -1.002461857014337 21.99930300017547 0  8.793804727226959e-05 21.99929473007374 0  1.002638097672083 21.99928037170373 0  2.005258138021443 21.9992591734448 0  3.008019703012843 21.99922969009483 0  4.008113824130637 21.9995564065722 0  5.008017540090526 21.9998837171519 0  6.005833231442538 21.99990680516569 0  7.003804682230832 21.999935208246 0  8.001877405964633 21.99996684348442 0  9 22 0  -9 24 0  -8.001579090398639 24.00007045617988 0  -7.003201034783666 24.00014559801495 0  -6.00490988980216 24.00023030579807 0  -5.006752038331832 24.00032986131396 0  -4.006834366326805 23.99961568274275 0  -3.006753508030925 23.99890077622901 0  -2.004373725632148 23.99893389157458 0  -1.002114884601911 23.99894927911856 0  8.432942644541002e-05 23.99894773775255 0  1.002283583642853 23.99892932446705 0  2.004542527890314 23.99889335738942 0  3.006922425691116 23.99883841080914 0  4.007001041767954 23.99955815537168 0  5.006916682961445 24.00027824040812 0  6.005033610401019 24.00019272595848 0  7.003283613282412 24.00012108590046 0  8.001620401417229 24.00005836279378 0  9 24 0  -9 26 0  -8.001152594666427 26.00014125294911 0  -7.002336352816861 26.0002891191225 0  -6.003583284468077 26.00045040848174 0  -5.004926937494946 26.00063233794856 0  -4.004987687303578 25.99960519531913 0  -3.004929643035677 25.99857748916821 0  -2.003186150416645 25.99863313350209 0  -1.001530895346308 25.99866296480866 0  8.070038063347002e-05 25.9986679199039 0  1.001692094995781 25.99864817026129 0  2.003346729738523 25.99860312216097 0  3.005089132577149 25.99853141571107 0  4.005143619622703 25.9995631300472 0  5.005079963191277 26.00059499361205 0  6.003698708212807 26.00042314950711 0  7.002413597258114 26.00027130317117 0  8.001191297699119 26.00013245179895 0  9 26 0  -9 28 0  -8.000600303610099 28.0001856169616 0  -7.001216895101251 28.00037895898767 0  -6.001866540834244 28.00058795026388 0  -5.002566749203495 28.00082091918788 0  -4.002600161762327 27.99959258414923 0  -3.002570943688384 27.99836395474478 0  -2.001648846862787 27.99843530283802 0  -1.000773727484433 27.99847582552407 0  7.801964826366713e-05 27.99848658503185 0  1.000929405825981 27.99846786350811 0  2.001803422601999 27.99841916295814 0  3.002723615379019 27.99833920416004 0  4.002748483627236 27.99957022446722 0  5.002711649573081 28.00080130849084 0  6.001976156245501 28.000573605282 0  7.001290404670927 28.00036956804141 0  8.00063718236207
[...]
<PointData  Vectors="f_42"> 
<DataArray  type="Float64"  Name="f_42"  NumberOfComponents="3" format="ascii">0.0000000000000000e+00 0.0000000000000000e+00 0.0000000000000000e+00  0.0000000000000000e+00 0.0000000000000000e+00 0.0000000000000000e+00  0.0000000000000000e+00 0.0000000000000000e+00 0.0000000000000000e+00  0.0000000000000000e+00 0.0000000000000000e+00 0.0000000000000000e+00  0.0000000000000000e+00 0.0000000000000000e+00 0.0000000000000000e+00  0.0000000000000000e+00 0.0000000000000000e+00 0.0000000000000000e+00  0.0000000000000000e+00 0.0000000000000000e+00 0.0000000000000000e+00  0.0000000000000000e+00 0.0000000000000000e+00 0.0000000000000000e+00  0.0000000000000000e+00 0.0000000000000000e+00 0.0000000000000000e+00  0.0000000000000000e+00 0.0000000000000000e+00 0.0000000000000000e+00  0.0000000000000000e+00 0.0000000000000000e+00 0.0000000000000000e+00  0.0000000000000000e+00 0.0000000000000000e+00 0.0000000000000000e+00  0.0000000000000000e+00 0.0000000000000000e+00 0.0000000000000000e+00  0.0000000000000000e+00 0.0000000000000000e+00 0.0000000000000000e+00  0.0000000000000000e+00 0.0000000000000000e+00 0.0000000000000000e+00  0.0000000000000000e+00 0.0000000000000000e+00 0.0000000000000000e+00  0.0000000000000000e+00 0.0000000000000000e+00 0.0000000000000000e+00  0.0000000000000000e+00 0.0000000000000000e+00 0.0000000000000000e+00  0.0000000000000000e+00 0.0000000000000000e+00 0.0000000000000000e+00  0.0000000000000000e+00 0.0000000000000000e+00 0.0000000000000000e+00  -7.0669988407398336e-06 -1.0515115614662697e-05 0.0000000000000000e+00  -1.4817052489082746e-05 -1.9741926333378212e-05 0.0000000000000000e+00  -2.4858673794920413e-05 -2.6635174656052240e-05 0.0000000000000000e+00  -4.0871120362110512e-05 -3.0738730037974892e-05 0.0000000000000000e+00  -2.4318760587019066e-05 -2.2932918386939996e-05 0.0000000000000000e+00  -7.2913198126042211e-06 -1.5576675022320654e-05 0.0000000000000000e+00  1.0432753610828001e-06 -8.6917624589030569e-06 0.0000000000000000e+00  2.5003001956118161e-06 -3.2484536892285057e-06 0.0000000000000000e+00  -3.4192392805808559e-07 -8.4881876510291611e-07 0.0000000000000000e+00  -3.5081934740605675e-06 -2.4657910521484013e-06 0.0000000000000000e+00  -3.1441482111630371e-06 -7.6958317212347563e-06 0.0000000000000000e+00  3.3344293480832790e-06 -1.4100692318921239e-05 0.0000000000000000e+00  1.6713594133501400e-05 -2.0914487436718260e-05 0.0000000000000000e+00  3.6052826212156951e-05 -2.3565293638235281e-05 0.0000000000000000e+00  2.1704655431249894e-05 -2.2640430841728549e-05 0.0000000000000000e+00  1.2891659424269703e-05 -1.7486468489413840e-05 0.0000000000000000e+00  6.1531524176129481e-06 -9.4718863055154616e-06 0.0000000000000000e+00  0.0000000000000000e+00 0.0000000000000000e+00 0.0000000000000000e+00  0.0000000000000000e+00 0.0000000000000000e+00 0.0000000000000000e+00  -1.1401627182832155e-05 -2.6182822716748983e-05 0.0000000000000000e+00  -2.0467859410412232e-05 -4.8817632968041157e-05 0.0000000000000000e+00  -2.5833973061254461e-05 -6.4428866067177379e-05 0.0000000000000000e+00  -2.7782287168781484e-05 -6.9702179669290721e-05 0.0000000000000000e+00  -3.7464678554565753e-06 -6.6026701577898039e-05 0.0000000000000000e+00  1.2409854858283959e-05 -4.5363730571455992e-05 0.0000000000000000e+00  1.6707916320793614e-05 -1.8488920358242139e-05 0.0000000000000000e+00  1.0715608410982568e-05 3.1326955055023860e-06 0.0000000000000000e+00  -8.8247861365947110e-07 1.1883255761939710e-05 0.0000000000000000e+00  -1.2739516885973635e-05 5.1767954855140022e-06 0.0000000000000000e+00  -1.9610544101647235e-05 -1.3040578437925129e-05 0.0000000000000000e+00  -1.6253185905061780e-05 -3.7693397295127752e-05 0.0000000000000000e+00  -1.0778765857067723e-06 -6.2417030250355100e-05 0.0000000000000000e+00  2.2088405826516753e-05 -7.0473202016560829e-05 0.0000000000000000e+00  2.1268477909645367e-05 -6.2196856659607020e-05 0.0000000000000000e+00  1.7485203836434408e-05 -4.6414757020581224e-05 0.0000000000000000e+00  9.9646316147152854e-06 -2.4772304069447683e-05 0.0000000000000000e+00  0.0000000000000000e+00 0.0000000000000000e+00 0.0000000000000000e+00  0.0000000000000000e+00 0.0000000000000000e+00 0.0000000000000000e+00  -2.5077043865983722e-05 -5.6039512924398989e-05 0.0000000000000000e+00  -4.0919078252459382e-05 -1.0598481430265084e-04 0.0000000000000000e+00  -4.0480487063708327e-05 -1.4357151292343446e-04 0.0000000000000000e+00  -2.1743823130041377e-05 -1.6279690625932506e-04 0.0000000000000000e+00  2.5061408642542306e-05 -1.3214933336847971e-04 0.0000000000000000e+00  4.6381481572838954e-05 -6.8251381551022718e-05 0.0000000000000000e+00  3.8044986005291002e-05 -1.2997442774733928e-06 0.0000000000000000e+00  1.7186321407715283e-05 3.5911960742297142e-05 0.0000000000000000e+00  -3.8966837214594188e-06 4.3423258748571242e-05 0.0000000000000000e+00  -2.2813021693318027e-05 3.1459873279237801e-05 0.0000000000000000e+00  -3.7190723868618903e-05 -1.6880074293919750e-06 0.0000000000000000e+00  -4.2535454198760862e-05 -5.7690589497584893e-05 0.0000000000000000e+00  -3.1478548927658624e-05 -1.1570325996364589e-04 0.0000000000000000e+00  8.2822614994079849e-06 -1.4427974091905639e-04 0.0000000000000000e+00  3.2685640666620764e-05 -1.3177369881462432e-04 0.0000000000000000e+00  3.7027120956744623e-05 -9.8781477404726308e-05 0.0000000000000000e+00  2.3551147857254064e-05 -5.2589295192618892e-05 0.0000000000000000e+00  0.0000000000000000e+00 0.0000000000000000e+00 0.0000000000000000e+00  0.0000000000000000e+00 0.0000000000000000e+00 0.0000000000000000e+00  -7.5683975919103424e-05 -1.1025892786265978e-04 0.0000000000000000e+00  -1.2648743016838840e-04 -2.1257122503399195e-04 0.0000000000000000e+00  -1.2831618986475040e-04 -2.9614441287156840e-04 0.0000000000000000e+00  -6.0567721964591759e-05 -3.4319245502007406e-04 0.0000000000000000e+00  2.9946481574864551e-05 -2.0197274462752741e-04 0.0000000000000000e+00  1.3213852074346053e-05 -3.6091221270878069e-05 0.0000000000000000e+00  -2.0787692515682527e-05 4.4676998057651170e-05 0.0000000000000000e+00  -2.3684351500489362e-05 5.3798053047148958e-05 0.0000000000000000e+00  -3.4436034921825948e-06 5.6438399984425414e-05 0.0000000000000000e+00  1.1755581076186998e-05 6.4540134784501731e-05 0.0000000000000000e+00  5.6747748971369510e-06 3.1021842605060032e-05 0.0000000000000000e+00  -3.3400288960400684e-05 -2.6063177878875713e-05 0.0000000000000000e+00  -4.6525352941154722e-05 -1.6763701398425762e-04 0.0000000000000000e+00  4.2098571069353721e-05 -3.2740470784288597e-04 0.0000000000000000e+00  1.2433961651162669e-04 -2.8327448120020113e-04 0.0000000000000000e+00  1.2782650819909494e-04 -2.0393217349163486e-04 0.0000000000000000e+00  7.7427800449318714e-05 -1.0598276060795363e-04 0.0000000000000000e+00  0.0000000000000000e+00 0.0000000000000000e+00 0.0000000000000000e+00  0.0000000000000000e+00 0.0000000000000000e+00 0.0000000000000000e+00  -2.2574167130934487e-04 -1.9620741342510020e-04 0.0000000000000000e+00  -4.0787687166970711e-04 -3.9402468016150024e-04 0.0000000000000000e+00  -4.9438816040610312e-04 -5.9467123305891642e-04 0.0000000000000000e+00  -4.1283092597603325e-04 -7.9843934910620571e-04 0.0000000000000000e+00  -2.6929995705909275e-04 -3.4239904223882936e-04 0.0000000000000000e+00  -2.9291192658058946e-04 4.9656686069155758e-05 0.0000000000000000e+00  -2.3473091459216971e-04 -1.8131879007915480e-05 0.0000000000000000e+00  -1.0860774354945146e-04 -3.9883602944063876e-05 0.0000000000000000e+00  -1.5779152796332443e-05 -4.5187712831289458e-05 0.0000000000000000e+00  7.6235783941217989e-05 -4.4751092122775383e-05 0.0000000000000000e+00  1.9860528484440826e-04 -4.7094743446739352e-05 0.0000000000000000e+00  3.0649141139711206e-04 9.3401424570103747e-05 0.0000000000000000e+00  2.9319863844044113e-04 -2.7654899578485561e-04 0.0000000000000000e+00  4.5555251959982114e-04 -7.6475338567689208e-04 0.0000000000000000e+00  5.3085837895507440e-04 -5.7550659789365249e-04 0.0000000000000000e+00  4.3407262503814475e-04 -3.8344596294704908e-04 0.0000000000000000e+00  2.3935832071772604e-04 -1.9146824438578722e-04 0.0000000000000000e+00  0.0000000000000000e+00 0.0000000000000000e+00 0.0000000000000000e+00  0.0000000000000000e+00 0.0000000000000000e+00 0.0000000000000000e+00  -5.4989458359439871e-04 -2.7559371334249925e-04 0.0000000000000000e+00  -1.0712221641968388e-03 -5.6395383420644206e-04 0.0000000000000000e+00  -1.5316912063007549e-03 -8.8035041851254885e-04 0.0000000000000000e+00  -1.8912467259727596e-03 -1.2460815082171457e-03 0.0000000000000000e+00  -1.8178569453617338e-03 -4.1429837271345879e-04 0.0000000000000000e+00  -1.8844046080549021e-03 4.0921075881618927e-04 0.0000000000000000e+00  -1.2957541100764385e-03 3.0921379042760989e-04 0.0000000000000000e+00  -6.4073231853193420e-04 2.5486307296082616e-04 0.0000000000000000e+00  3.9491338868208029e-05 2.4385090198358761e-04 0.0000000000000000e+00  7.2662925308697858e-04 2.7785747716633119e-04 0.0000000000000000e+00  1.4053163425122885e-03 3.6685475257464356e-04 0.0000000000000000e+00  2.0450887197348369e-03 5.3584203444427894e-04 0.0000000000000000e+00  1.9748423055876859e-03 -3.5177670666511015e-04 0.0000000000000000e+00  2.0214586268281075e-03 -1.2467156476260708e-03 0.0000000000000000e+00  1.6249975833019801e-03 -8.7872520108645870e-04 0.0000000000000000e+00  1.1316597956370178e-03 -5.6246293980422566e-04 0.0000000000000000e+00  5.7963672558486651e-04 -2.7481352621272482e-04 0.0000000000000000e+00  0.0000000000000000e+00 0.0000000000000000e+00 0.0000000000000000e+00  0.0000000000000000e+00 0.0000000000000000e+00 0.0000000000000000e+00  -9.8763259166388087e-04 -3.0377545947443338e-04 0.0000000000000000e+00  -1.9769083767951991e-03 -6.2149669276169027e-04 0.0000000000000000e+00  -2.9707782493301684e-03 -9.6834043829414451e-04 0.0000000000000000e+00  -3.9755617386095969e-03 -1.3618974681995407e-03 0.0000000000000000e+00  -3.9859294714415777e-03 -3.8924109056187204e-04 0.0000000000000000e+00  -3.9921321169777675e-03 5.9573084259996901e-04 0.0000000000000000e+00  -2.6235506357285840e-03 4.5423041134816280e-04 0.0000000000000000e+00  -1.2742312580693639e-03 3.7648171452650092e-04 0.0000000000000000e+00  6.7260727074882563e-05 3.5302201073006737e-04 0.0000000000000000e+00  1.4118202239780200e-03 3.8075752722748022e-04 0.0000000000000000e+00  2.7695784825824514e-03 4.6121015498573696e-04 0.0000000000000000e+00  4.1485472612257067e-03 5.9876458405109319e-04 0.0000000000000000e+00  4.1594863166602202e-03 -3.8649736773074887e-04 0.0000000000000000e+00  4.1653497003992920e-03 -1.3656178173544523e-03 0.0000000000000000e+00  3.1050062227865882e-03 -9.7449550993202155e-04 0.0000000000000000e+00  2.0630296935199833e-03 -6.2670842225437840e-04 0.0000000000000000e+00  1.0297723883295848e-03 -3.0664005472844015e-04 0.0000000000000000e+00  0.0000000000000000e+00 0.0000000000000000e+00 0.0000000000000000e+00  0.0000000000000000e+00 0.0000000000000000e+00 0.0000000000000000e+00  -1.4178656187507608e-03 -2.7608155439413391e-04 0.0000000000000000e+00  -2.8626829935772895e-03 -5.6235369583303044e-04 0.0000000000000000e+00  -4.3637398995909496e-03 -8.6918296342430846e-04 0.0000000000000000e+00  -5.9551003572836303e-03 -1.2071218833643374e-03 0.0000000000000000e+00  -6.0116777381148791e-03 -3.7654196423092453e-04 0.0000000000000000e+00  -5.9584927533068849e-03 4.4964466975036912e-04 0.0000000000000000e+00  -3.8767094694352861e-03 3.4498760679007391e-04 0.0000000000000000e+00  -1.8774793245821481e-03 2.8154632610598236e-04 0.0000000000000000e+00  8.2796239409971880e-05 2.5795549515055265e-04 0.0000000000000000e+00  2.0453314813537308e-03 2.7332336148100828e-04 0.0000000000000000e+00  4.0513587375487978e-03 3.2769139880308373e-04 0.0000000000000000e+00  6.1447522163224615e-03 4.2182548278478071e-04 0.0000000000000000e+00  6.2047295102810839e-03 -4.1201807415560001e-04 0.0000000000000000e+00  6.1522950466552954e-03 -1.2464960856719163e-03 0.0000000000000000e+00  4.5087795416802676e-03 -8.9656091808073396e-04 0.0000000000000000e+00  2.9578461985412699e-03 -5.7982424110065804e-04 0.0000000000000000e+00  1.4649685651714854e-03 -2.8461950138280019e-04 0.0000000000000000e+00  0.0000000000000000e+00 0.0000000000000000e+00 0.0000000000000000e+00  0.0000000000000000e+00 0.0000000000000000e+00 0.0000000000000000e+00  -1.7393080107402142e-03 -2.0760104119055300e-04 0.0000000000000000e+00  -3.5217384145253164e-03 -4.2088502481884004e-04 0.0000000000000000e+00  -5.3926565732756501e-03 -6.4543023806330345e-04 0.0000000000000000e+00  -7.4018935720163662e-03 -8.8658132513989775e-04 0.0000000000000000e+00  -7.4873433456232397e-03 -3.7346280120185656e-04 0.0000000000000000e+00  -7.4052338736146448e-03 1.3899797206519860e-04 0.0000000000000000e+00  -4.8027387981506089e-03 7.1494948720738597e-05 0.0000000000000000e+00  -2.3263553626217885e-03 2.7845365546528934e-05 0.0000000000000000e+00  8.9233604806213240e-05 7.6829296621281010e-06 0.0000000000000000e+00  2.5061801242788782e-03 1.0502996588572399e-05 0.0000000000000000e+00  4.9865480292776805e-03 3.5696502973962113e-05 0.0000000000000000e+00  7.5953493861122771e-03 8.2426985655353722e-05 0.0000000000000000e+00  7.6823876651824765e-03 -4.3108332786148955e-04 0.0000000000000000e+00  7.5994938940349794e-03 -9.4307360553251812e-04 0.0000000000000000e+00  5.5390647694862306e-03 -6.8559933251048199e-04 0.0000000000000000e+00  3.6184564151586153e-03 -4.4666904428687041e-04 0.0000000000000000e+00  1.7873960090303634e-03 -2.2020592723402896e-04 0.0000000000000000e+00  0.0000000000000000e+00 0.0000000000000000e+00 0.0000000000000000e+00  0.0000000000000000e+00 0.0000000000000000e+00 0.0000000000000000e+00  -1.8873497727964100e-03 -1.1640407556195552e-04 0.0000000000000000e+00  -3.8250406624469931e-03 -2.3434788787716823e-04 0.0000000000000000e+00  -5.8653352409343239e-03 -3.5520116705551821e-04 0.0000000000000000e+00  -8.0643387504219302e-03 -4.7999921519442201e-04 0.0000000000000000e+00  -8.1618445405673631e-03 -3.7324217096471393e-04 0.0000000000000000e+00  -8.0657797714763519e-03 -2.6721115378811034e-04 0.0000000000000000e+00  -5.2277991125951615e-03 -2.9695984313679287e-04 0.0000000000000000e+00  -2.5337070698744635e-03 -3.1933784498510093e-04 0.0000000000000000e+00  9.0169179006837833e-05 -3.3405511453224695e-04 0.0000000000000000e+00  2.7148354743979689e-03 -3.4136219217359697e-04 0.0000000000000000e+00  5.4112613227523523e-03 -3.4203126547558565e-04 0.0000000000000000e+00  8.2530205449127293e-03 -3.3740275231915770e-04 0.0000000000000000e+00  8.3509590822913905e-03 -4.4056294067499669e-04 0.0000000000000000e+00  8.2543154787709551e-03 -5.4268137131121207e-04 0.0000000000000000e+00  6.0068186888500609e-03 -4.0039657242388940e-04 0.0000000000000000e+00  3.9188768768628470e-03 -2.6361426134414252e-04 0.0000000000000000e+00  1.9341200221543431e-03 -1.3077848889461347e-04 0.0000000000000000e+00  -6.0223030534012322e-12 -6.5946186798380934e-12 0.0000000000000000e+00  0.0000000000000000e+00 0.0000000000000000e+00 0.0000000000000000e+00  -1.8331851650934621e-03 -1.9065699031947030e-05 0.0000000000000000e+00  -3.7161367490723355e-03 -3.6177163154114787e-05 0.0000000000000000e+00  -5.7001804166259759e-03 -4.9190052810806755e-05 0.0000000000000000e+00  -7.8397472228888369e-03 -5.5576022189623455e-05 0.0000000000000000e+00  -7.9352139821116073e-03 -3.7695108957308012e-04 0.0000000000000000e+00  -7.8406833263978386e-03 -6.9913526537784636e-04 0.0000000000000000e+00  -5.0808269156886318e-03 -6.9474720626181222e-04 0.0000000000000000e+00  -2.4618570143371279e-03 -6.9699982452593387e-04 0.0000000000000000e+00  8.7938047272269592e-05 -7.0526992628603172e-04 0.0000000000000000e+00  2.6380976720828501e-03 -7.1962829628495083e-04 0.0000000000000000e+00  5.2581380214417059e-03 -7.4082655521432892e-04 0.0000000000000000e+00  8.0197030128425131e-03 -7.7030990518288617e-04 0.0000000000000000e+00  8.1138241306396037e-03 -4.4359342777760782e-04 0.0000000000000000e+00  8.0175400905254518e-03 -1.1628284810903653e-04 0.0000000000000000e+00  5.8332314425373951e-03 -9.3194834309876843e-05 0.0000000000000000e+00  3.8046822308289430e-03 -6.4791753980081396e-05 0.0000000000000000e+00  1.8774059646260578e-03 -3.3156515574285507e-05 0.0000000000000000e+00  0.0000000000000000e+00 0.0000000000000000e+00 0.0000000000000000e+00  0.0000000000000000e+00 0.0000000000000000e+00 0.0000000000000000e+00  -1.5790903986313686e-03 7.0456179879179332e-05 0.0000000000000000e+00  -3.2010347836681392e-03 1.4559801494494295e-04 0.0000000000000000e+00  -4.9098898021640225e-03 2.3030579807462230e-04 0.0000000000000000e+00  -6.7520383318266288e-03 3.2986131395970305e-04 0.0000000000000000e+00  -6.8343663268058425e-03 -3.8431725723407824e-04 0.0000000000000000e+00  -6.7535080309238989e-03 -1.0992237709966269e-03 0.0000000000000000e+00  -4.3737256321447994e-03 -1.0661084254102689e-03 0.0000000000000000e+00  -2.1148846019107669e-03 -1.0507208814421929e-03 0.0000000000000000e+00  8.4329426445410016e-05 -1.0522622474452026e-03 0.0000000000000000e+00  2.2835836428524055e-03 -1.0706755329506785e-03 0.0000000000000000e+00  4.5425278903159548e-03 -1.1066426105562801e-03 0.0000000000000000e+00  6.9224256911151159e-03 -1.1615891908586795e-03 0.0000000000000000e+00  7.0010417679516506e-03 -4.4184462832200141e-04 0.0000000000000000e+00  6.9166829614461288e-03 2.7824040811372084e-04 0.0000000000000000e+00  5.0336104010217800e-03 1.9272595849876878e-04 0.0000000000000000e+00  3.2836132824123898e-03 1.2108590045613064e-04 0.0000000000000000e+00  1.6204014172333872e-03 5.8362793801928636e-05 0.0000000000000000e+00  0.0000000000000000e+00 0.0000000000000000e+00 0.0000000000000000e+00  0.0000000000000000e+00 0.0000000000000000e+00 0.0000000000000000e+00  -1.1525946664291346e-03 1.4125294909864310e-04 0.0000000000000000e+00  -2.3363528168621399e-03 2.8911912250151372e-04 0.0000000000000000e+00  -3.5832844680770801e-03 4.5040848171932297e-04 0.0000000000000000e+00  -4.9269374949425888e-03 6.3233794856307202e-04 0.0000000000000000e+00  -4.9876873035787197e-03 -3.9480468085901257e-04 0.0000000000000000e+00  -4.9296430356737704e-03 -1.4225108317934133e-03 0.0000000000000000e+00  -3.1861504166457639e-03 -1.3668664978975416e-03 0.0000000000000000e+00  -1.5308953463074987e-03 -1.3370351913373085e-03 0.0000000000000000e+00  8.0700380633470025e-05 -1.3320800960866877e-03 0.0000000000000000e+00  1.6920949957813949e-03 -1.3518297386933564e-03 0.0000000000000000e+00  3.3467297385235389e-03 -1.3968778390529551e-03 0.0000000000000000e+00  5.0891325771471726e-03 -1.4685842889370754e-03 0.0000000000000000e+00  5.1436196227032122e-03 -4.3686995279819580e-04 0.0000000000000000e+00  5.0799631912747467e-03 5.9499361205970374e-04 0.0000000000000000e+00  3.6987082128085913e-03 4.2314950709555901e-04 0.0000000000000000e+00  2.4135972581134893e-03 2.7130317117505718e-04 0.0000000000000000e+00  1.1912976991198070e-03 1.3245179897571635e-04 0.0000000000000000e+00  0.0000000000000000e+00 0.0000000000000000e+00 0.0000000000000000e+00  0.0000000000000000e+00 0.0000000000000000e+00 0.0000000000000000e+00  -6.0030361009147869e-04 1.8561696160756950e-04 0.0000000000000000e+00  -1.2168951012527195e-03 3.7895898766335484e-04 0.0000000000000000e+00  -1.8665408342431850e-03 5.8795026388318945e-04 0.0000000000000000e+00  -2.5667492034954402e-03 8.2091918787850478e-04 0.0000000000000000e+00  -2.6001617623295338e-03 -4.0741585078229114e-04 0.0000000000000000e+00  -2.5709436883833200e-03 -1.6360452552450970e-03 0.0000000000000000e+00  -1.6488468627874145e-03 -1.5646971620005077e-03 0.0000000000000000e+00  -7.7372748443254810e-04 -1.5241744759336830e-03 0.0000000000000000e+00  7.8019648263667125e-05 -1.5134149681512107e-03 0.0000000000000000e+00  9.2940582598100387e-04 -1.5321364918771808e-03 0.0000000000000000e+00  1.8034226019995570e-03 -1.5808370418617654e-03 0.0000000000000000e+00  2.7236153790237039e-03 -1.6607958399780334e-03 0.0000000000000000e+00  2.7484836272345450e-03 -4.2977553278256717e-04 0.0000000000000000e+00 