<?xml version="1.0"?>
<VTKFile type="UnstructuredGrid"  version="0.1"  >
<UnstructuredGrid>
<Piece  NumberOfPoints="589" NumberOfCells="1080">
<Points>
<DataArray  type="Float64"  NumberOfComponents="3"  format="ascii">-9 0 0  -8 0 0  -7 0 0  -6 0 0  -5 0 0  -4 0 0  -3 0 0  -2 0 0  -1 0 0  0 0 0  1 0 0  2 0 0  3 0 0  4 0 0  5 0 0  6 0 0  7 0 0  8 0 0  9 0 0  -9 2 0  -8.000001054192696 1.99999885599068 0  -7.000002243046781 1.999997795088015 0  -6.000003800944456 1.999996877740628 0  -5.000006195248862 1.999996107617492 0  -4.000004318019328 1.999997247408342 0  -3.000002248088752 1.999998022907874 0  -2.00000103132305 1.99999861704991 0  -1.000000398637276 1.999999076148192 0  -1.262882120487805e-07 1.999999274195698 0  1.000000115139035 1.999999147235155 0  2.000000639971746 1.999998722597105 0  3.000001674530399 1.999998168277181 0  4.00000331570073 1.999997503845111 0  5.000005565138851 1.999997054835528 0  6.00000338959399 1.999997396237578 0  7.000001991652322 1.999998079327738 0  8.000000934488636 1.999998984297294 0  9 2 0  -9 4 0  -8.000001569736696 3.999997379561219 0  -7.000003009916759 3.999995015960468 0  -6.000004256256375 3.999993166587846 0  -5.000005345600212 3.999992090786993 0  -4.000002959119311 3.999992464964989 0  -3.000001138161787 3.99999417164421 0  -2.000000181563271 3.999996385415201 0  -0.9999999767322791 3.999998127743029 0  -2.055597985657134e-07 3.999998836493897 0  0.9999995402848044 3.999998326164156 0  1.999999667644114 3.999996881631142 0  3.000000573882339 3.999994893403509 0  4.000002347141155 3.999992877669696 0  5.000004603418257 3.999992092590902 0  6.000003668765186 3.99999342572714 0  7.000002620187463 3.999995271144675 0  8.000001378272726 3.999997525668765 0  9 4 0  -9 6 0  -8.000002603501871 5.999994875802356 0  -7.000004552149764 5.999990179940259 0  -6.000005339556648 5.999986361164313 0  -5.000004808177363 5.999983868170484 0  -4.000000746529473 5.999986187374112 0  -2.999998588749502 5.999991087514267 0  -1.999998596198697 5.999996224951772 0  -0.9999995422060057 5.999999119902395 0  -5.188657580323354e-07 5.999999755415126 0  0.9999986787162206 5.999998824836125 0  1.99999824088536 5.999996268636698 0  2.999998443495212 5.999992008821009 0  3.999999819058187 5.999987602049589 0  5.000003319722575 5.999985475812511 0  6.00000440363934 5.999987406107739 0  7.000004022067715 5.999990826556014 0  8.000002367481398 5.999995187832681 0  9 6 0  -9 8 0  -8.000006254799821 7.999990658789239 0  -7.000010739323805 7.999981835667725 0  -6.000011698001387 7.999974252699695 0  -5.000007526160658 7.999969135554841 0  -4.000000449830168 7.999979667791644 0  -3.000001039568768 7.999992057683417 0  -2.000002951844494 7.999998242215262 0  -1.000002604061783 7.999999172508943 0  -6.062316448281151e-07 7.999999455374366 0  1.000001057699794 7.999999943582924 0  2.000001102269962 7.999997380398065 0  2.999998840328854 7.999992849773039 0  3.999998681301078 7.999982329971172 0  5.000005802310576 7.999970615568904 0  6.000011000418917 7.999975425991138 0  7.000010515946583 7.99998261874561 0  8.000006208213584 7.999991046508325 0  9 8 0  -9 10 0  -8.000016986827132 9.999984369732976 0  -7.0000310298064 9.999968531256155 0  -6.000038578125483 9.999952281719839 0  -5.000034613818839 9.999935428153405 0  -4.000023985406244 9.999968014677256 0  -3.00002445576215 9.999996251658722 0  -2.00001902210057 9.999992224700273 0  -1.000009118081479 9.999990933359935 0  -1.572807456880829e-06 9.999990629664815 0  1.000005912313052 9.99999059162319 0  2.000015505506336 9.999990208919446 0  3.000024654113418 9.999999262603854 0  4.000024838256095 9.999972693625235 0  5.000036572203934 9.9999381728879 0  6.000040326779858 9.999953917137226 0  7.000032302398403 9.999969471246521 0  8.000017650545157 9.999984802498206 0  9 10 0  -9 12 0  -8.000039492635681 11.99997891412506 0  -7.000077296340959 11.99995687208428 0  -6.000111501386872 11.99993272859016 0  -5.00013976338462 11.9999048843902 0  -4.000134862153128 11.99996195566124 0  -3.000138724733938 12.00001846443439 0  -2.000094674805792 12.00001155392516 0  -1.000047120262085 12.00000781174995 0  1.710199637811423e-06 12.00000700572509 0  1.000051066841134 12.00000923128573 0  2.000100414045278 12.00001519975468 0  3.000148317074713 12.00002672426994 0  4.00014452674792 11.99996616893913 0  5.000147467683651 11.99990520336186 0  6.000116765535884 11.99993317014161 0  7.000080596972869 11.99995721600052 0  8.000041086515091 11.99997909401038 0  9 12 0  -9 14 0  -8.000068751010968 13.99997728381695 0  -7.000137952536284 13.99995361981592 0  -6.000208188422695 13.99992797985393 0  -5.000280384060775 13.99989918240733 0  -4.000281438065931 13.9999630173002 0  -3.000280831566672 14.00002774859044 0  -2.000184351928766 14.00001821112155 0  -1.000090228804163 14.00001294662295 0  2.88904870396697e-06 14.00001125642105 0  1.000096263422615 14.0000129005152 0  2.000191107578085 14.00001796818987 0  3.000288548640775 14.00002674975554 0  4.000290383429757 13.99996296280419 0  5.000290427330913 13.99989965989698 0  6.00021506232377 13.99992810933563 0  7.000142254647973 13.99995363363786 0  8.000070823883 13.99997727441751 0  9 14 0  -9 16 0  -8.000096203210742 15.99997944515149 0  -7.000194464562655 15.99995827218738 0  -6.000297025683888 15.9999358622385 0  -5.000406512155298 15.99991161017286 0  -4.000410495493348 15.99996307491148 0  -3.000406136661427 16.00001421008143 0  -2.000264613612732 16.00000777970169 0  -1.000129320990508 16.00000378690023 0  3.041828951009066e-06 16.00000217224857 0  1.000135585541174 16.00000287769014 0  2.000271423454126 16.00000588331671 0  3.000413879030474 16.00001119053395 0  4.000418702861746 15.9999605757307 0  5.000414961623067 15.99990992214501 0  6.000303117603013 15.99993475046078 0  7.000198397290109 15.99995758637322 0  8.000098129281003 15.99997911614244 0  9 16 0  -9 18 0  -8.000115417636358 17.99998407898024 0  -7.000233770975734 17.99996787278124 0  -6.000358149735146 17.9999511135405 0  -5.000491953766002 17.99993357216337 0  -4.000497526479433 17.99996242449119 0  -3.000491730321049 17.99999124014851 0  -2.000319966421714 17.9999876001791 0  -1.000156699991686 17.99998511694949 0  2.47072992084954e-06 17.999983810062 0  1.000161736167611 17.99998365641131 0  2.000325280422133 17.99998459421083 0  3.000497483272624 17.99998651313966 0  4.000503570181446 17.99995873122577 0  5.000498128284254 17.99993106230266 0  6.000362665045811 17.99994936188904 0  7.000236722542387 17.99996676410741 0  8.000116875082115 17.99998354163292 0  9 18 0  -9 20 0  -8.000122885600609 19.99998985337064 0  -7.00024896854626 19.99997968547541 0  -6.000381560979787 19.99996949334331 0  -5.00052420367098 19.99995931139206 0  -4.000530217854629 19.99996163563411 0  -3.000524003975479 19.99996393389628 0  -2.000341342861813 19.99996279498217 0  -1.000167702538386 19.99996174304941 0  1.520499996234247e-06 19.99996083635304 0  1.000170777369083 19.99996007067558 0  2.000344515719095 19.99995938173416 0  3.000527329254751 19.99995864181211 0  4.000533610735499 19.99995759214815 0  5.000527642906333 19.99995662074846 0  6.000384117085146 19.99996756274753 0  7.000250660136016 19.9999784405486 0  8.000123727338003 19.99998924358777 0  8.999999999998353 20 0  -9 22 0  -8.000117561034306 21.99999571265051 0  -7.000238121463661 21.99999159493198 0  -6.000364760023742 21.99998783218027 0  -5.000500712319701 21.99998464132297 0  -4.00050633857563 21.99996072595615 0  -3.000500608064046 21.99993679446609 0  -2.000326649085947 21.99993764192183 0  -1.000161042063997 21.99993778837359 0  4.34967897601615e-07 21.99993729875413 0  1.000161898796265 21.99993617811311 0  2.000327463263489 21.99993437313162 0  3.000501341559514 21.99993177167394 0  4.000506992802686 21.99995693145962 0  5.000501335485828 21.99998214494738 0  6.000365282404879 21.99998602010416 0  7.000238494384707 21.99999041580186 0  8.000117754580591 21.99999513181683 0  9 22 0  -9 24 0  -8.000100235905071 24.00000089330247 0  -7.000202955427421 24.00000208436688 0  -6.000310693422295 24.00000388320123 0  -5.000426084809978 24.00000662418704 0  -4.000430774305347 23.99995979875172 0  -3.00042611580566 23.99991297136215 0  -2.000278559549888 23.99991529201564 0  -1.000137867206664 23.99991637718632 0  -5.974320309551595e-07 23.99991628444923 0  1.000136623912065 23.99991502206813 0  2.000277168319156 23.99991254947127 0  3.000424469389626 23.99990877760094 0  4.000428943897101 23.99995666361351 0  5.000424181564787 24.00000459290262 0  6.000309377203404 24.00000239503924 0  7.000202129670973 24.00000110959816 0  8.000099838240457 24.00000041122056 0  9 24 0  -9 26 0  -8.000072973024604 26.00000488287952 0  -7.000147709630382 26.00001014264473 0  -6.000226003250386 26.00001616546415 0  -5.000309705357134 26.00002335582435 0  -4.000313110445133 25.99995893287998 0  -3.000309902237503 25.99989451764778 0  -2.000203025213693 25.99989788262701 0  -1.000101007248512 25.99989967639339 0  -1.43563062313401e-06 25.99989994747448 0  1.000098062946012 25.99989870559883 0  2.000199859186851 25.99989592153771 0  3.000306358346494 25.99989152778811 0  4.000309315394294 25.99995671567501 0  5.000305813039183 26.00002193720223 0  6.000223234796031 26.00001512016858 0  7.000145934606941 26.00000945507515 0  8.000072106443449 26.00000454196141 0  9 26 0  -9 28 0  -8.00003865231975 28.00000736492311 0  -7.000078229082828 28.0000151486797 0  -6.000119668662113 28.00002377747779 0  -5.000163936102727 28.00003369195239 0  -4.000165858829078 27.99995818537684 0  -3.000164321044265 27.99988269404215 0  -2.000108065702011 27.99988675697794 0  -1.000054366964849 27.99988906518179 0  -1.980937093699883e-06 27.99988966128799 0  1.000050317336509 27.99988855671527 0  2.000103750355317 27.99988573094005 0  3.000159554854931 27.99988113223219 0  4.000160804266556 27.99995703343378 0  5.000158772553904 28.00003296161059 0  6.000115970184007 28.00002323754912 0  7.000075845245575 28.00001479266886 0  8.000037484710191 28.
[...]
<PointData  Vectors="f_42"> 
<DataArray  type="Float64"  Name="f_42"  NumberOfComponents="3" format="ascii">0.0000000000000000e+00 0.0000000000000000e+00 0.0000000000000000e+00  0.0000000000000000e+00 0.0000000000000000e+00 0.0000000000000000e+00  0.0000000000000000e+00 0.0000000000000000e+00 0.0000000000000000e+00  0.0000000000000000e+00 0.0000000000000000e+00 0.0000000000000000e+00  0.0000000000000000e+00 0.0000000000000000e+00 0.0000000000000000e+00  0.0000000000000000e+00 0.0000000000000000e+00 0.0000000000000000e+00  0.0000000000000000e+00 0.0000000000000000e+00 0.0000000000000000e+00  0.0000000000000000e+00 0.0000000000000000e+00 0.0000000000000000e+00  0.0000000000000000e+00 0.0000000000000000e+00 0.0000000000000000e+00  0.0000000000000000e+00 0.0000000000000000e+00 0.0000000000000000e+00  0.0000000000000000e+00 0.0000000000000000e+00 0.0000000000000000e+00  0.0000000000000000e+00 0.0000000000000000e+00 0.0000000000000000e+00  0.0000000000000000e+00 0.0000000000000000e+00 0.0000000000000000e+00  0.0000000000000000e+00 0.0000000000000000e+00 0.0000000000000000e+00  0.0000000000000000e+00 0.0000000000000000e+00 0.0000000000000000e+00  0.0000000000000000e+00 0.0000000000000000e+00 0.0000000000000000e+00  0.0000000000000000e+00 0.0000000000000000e+00 0.0000000000000000e+00  0.0000000000000000e+00 0.0000000000000000e+00 0.0000000000000000e+00  0.0000000000000000e+00 0.0000000000000000e+00 0.0000000000000000e+00  0.0000000000000000e+00 0.0000000000000000e+00 0.0000000000000000e+00  -1.0541926931073016e-06 -1.1440093203238437e-06 0.0000000000000000e+00  -2.2430467807349220e-06 -2.2049119846560013e-06 0.0000000000000000e+00  -3.8009444536007811e-06 -3.1222593723410758e-06 0.0000000000000000e+00  -6.1952488628124681e-06 -3.8923825082077093e-06 0.0000000000000000e+00  -4.3180193275283795e-06 -2.7525916577194044e-06 0.0000000000000000e+00  -2.2480887527995923e-06 -1.9770921252357507e-06 0.0000000000000000e+00  -1.0313230485827783e-06 -1.3829500903619956e-06 0.0000000000000000e+00  -3.9863727598449924e-07 -9.2385180871930869e-07 0.0000000000000000e+00  -1.2628821204878047e-07 -7.2580430208122553e-07 0.0000000000000000e+00  1.1513903470913811e-07 -8.5276484449184256e-07 0.0000000000000000e+00  6.3997174507085612e-07 -1.2774028942043297e-06 0.0000000000000000e+00  1.6745304003584508e-06 -1.8317228199421908e-06 0.0000000000000000e+00  3.3157007294869807e-06 -2.4961548881444231e-06 0.0000000000000000e+00  5.5651388521667446e-06 -2.9451644721630099e-06 0.0000000000000000e+00  3.3895939873917744e-06 -2.6037624220936664e-06 0.0000000000000000e+00  1.9916523233196688e-06 -1.9206722618524067e-06 0.0000000000000000e+00  9.3448863072432366e-07 -1.0157027070960144e-06 0.0000000000000000e+00  0.0000000000000000e+00 0.0000000000000000e+00 0.0000000000000000e+00  0.0000000000000000e+00 0.0000000000000000e+00 0.0000000000000000e+00  -1.5697366973208404e-06 -2.6204387805561521e-06 0.0000000000000000e+00  -3.0099167555684634e-06 -4.9840395321270447e-06 0.0000000000000000e+00  -4.2562563751544718e-06 -6.8334121535606613e-06 0.0000000000000000e+00  -5.3456002141800591e-06 -7.9092130063402696e-06 0.0000000000000000e+00  -2.9591193109536190e-06 -7.5350350117541565e-06 0.0000000000000000e+00  -1.1381617880191690e-06 -5.8283557901243731e-06 0.0000000000000000e+00  -1.8156327064315084e-07 -3.6145847997918061e-06 0.0000000000000000e+00  2.3267720646210168e-08 -1.8722569697348463e-06 0.0000000000000000e+00  -2.0555979856571340e-07 -1.1635061017419415e-06 0.0000000000000000e+00  -4.5971519596596800e-07 -1.6738358425143205e-06 0.0000000000000000e+00  -3.3235588571587111e-07 -3.1183688585720225e-06 0.0000000000000000e+00  5.7388234128924579e-07 -5.1065964918429143e-06 0.0000000000000000e+00  2.3471411533797169e-06 -7.1223303033621175e-06 0.0000000000000000e+00  4.6034182562769984e-06 -7.9074090973553813e-06 0.0000000000000000e+00  3.6687651841763839e-06 -6.5742728607200340e-06 0.0000000000000000e+00  2.6201874638085826e-06 -4.7288553226236696e-06 0.0000000000000000e+00  1.3782727314744469e-06 -2.4743312360358401e-06 0.0000000000000000e+00  0.0000000000000000e+00 0.0000000000000000e+00 0.0000000000000000e+00  0.0000000000000000e+00 0.0000000000000000e+00 0.0000000000000000e+00  -2.6035018720399966e-06 -5.1241976457797529e-06 0.0000000000000000e+00  -4.5521497648815535e-06 -9.8200597399129414e-06 0.0000000000000000e+00  -5.3395566486690476e-06 -1.3638835687186896e-05 0.0000000000000000e+00  -4.8081773607508270e-06 -1.6131829514769399e-05 0.0000000000000000e+00  -7.4652947205003015e-07 -1.3812625885793794e-05 0.0000000000000000e+00  1.4112504981128978e-06 -8.9124857327723383e-06 0.0000000000000000e+00  1.4038013029464957e-06 -3.7750482278929324e-06 0.0000000000000000e+00  4.5779399396177055e-07 -8.8009760355146836e-07 0.0000000000000000e+00  -5.1886575803233538e-07 -2.4458487567421042e-07 0.0000000000000000e+00  -1.3212837795541672e-06 -1.1751638720602516e-06 0.0000000000000000e+00  -1.7591146406084896e-06 -3.7313633009646907e-06 0.0000000000000000e+00  -1.5565047887750202e-06 -7.9911789897746164e-06 0.0000000000000000e+00  -1.8094181296458462e-07 -1.2397950412055120e-05 0.0000000000000000e+00  3.3197225773702282e-06 -1.4524187489460110e-05 0.0000000000000000e+00  4.4036393394509452e-06 -1.2593892259540637e-05 0.0000000000000000e+00  4.0220677140289969e-06 -9.1734439873032993e-06 0.0000000000000000e+00  2.3674813941703225e-06 -4.8121673195502029e-06 0.0000000000000000e+00  0.0000000000000000e+00 0.0000000000000000e+00 0.0000000000000000e+00  0.0000000000000000e+00 0.0000000000000000e+00 0.0000000000000000e+00  -6.2547998250477552e-06 -9.3412107603937472e-06 0.0000000000000000e+00  -1.0739323804513079e-05 -1.8164332278416818e-05 0.0000000000000000e+00  -1.1698001388386790e-05 -2.5747300307862453e-05 0.0000000000000000e+00  -7.5261606599319808e-06 -3.0864445157211631e-05 0.0000000000000000e+00  -4.4983016779901319e-07 -2.0332208356013623e-05 0.0000000000000000e+00  -1.0395687689110157e-06 -7.9423165816757452e-06 0.0000000000000000e+00  -2.9518444941127186e-06 -1.7577847386387355e-06 0.0000000000000000e+00  -2.6040617828183849e-06 -8.2749105879081429e-07 0.0000000000000000e+00  -6.0623164482811513e-07 -5.4462563362637130e-07 0.0000000000000000e+00  1.0576997945131130e-06 -5.6417075497390825e-08 0.0000000000000000e+00  1.1022699599887564e-06 -2.6196019344786709e-06 0.0000000000000000e+00  -1.1596711467384724e-06 -7.1502269576725145e-06 0.0000000000000000e+00  -1.3186989207934588e-06 -1.7670028827120668e-05 0.0000000000000000e+00  5.8023105730530374e-06 -2.9384431098524454e-05 0.0000000000000000e+00  1.1000418918988816e-05 -2.4574008858962499e-05 0.0000000000000000e+00  1.0515946582061352e-05 -1.7381254391349957e-05 0.0000000000000000e+00  6.2082135812942026e-06 -8.9534916733463074e-06 0.0000000000000000e+00  0.0000000000000000e+00 0.0000000000000000e+00 0.0000000000000000e+00  0.0000000000000000e+00 0.0000000000000000e+00 0.0000000000000000e+00  -1.6986827128968652e-05 -1.5630267025761845e-05 0.0000000000000000e+00  -3.1029806399402478e-05 -3.1468743841721749e-05 0.0000000000000000e+00  -3.8578125480601660e-05 -4.7718280161040634e-05 0.0000000000000000e+00  -3.4613818837626429e-05 -6.4571846595560476e-05 0.0000000000000000e+00  -2.3985406245371183e-05 -3.1985322744072861e-05 0.0000000000000000e+00  -2.4455762151094533e-05 -3.7483412803608678e-06 0.0000000000000000e+00  -1.9022100571348282e-05 -7.7752997241086923e-06 0.0000000000000000e+00  -9.1180814791769785e-06 -9.0666400639035791e-06 0.0000000000000000e+00  -1.5728074568808291e-06 -9.3703351895204623e-06 0.0000000000000000e+00  5.9123130524813820e-06 -9.4083768112644135e-06 0.0000000000000000e+00  1.5505506335350321e-05 -9.7910805554117876e-06 0.0000000000000000e+00  2.4654113418112499e-05 -7.3739614272015239e-07 0.0000000000000000e+00  2.4838256095248274e-05 -2.7306374766967191e-05 0.0000000000000000e+00  3.6572203935059725e-05 -6.1827112106361686e-05 0.0000000000000000e+00  4.0326779857692543e-05 -4.6082862772493812e-05 0.0000000000000000e+00  3.2302398401901052e-05 -3.0528753476838095e-05 0.0000000000000000e+00  1.7650545153273681e-05 -1.5197501794599476e-05 0.0000000000000000e+00  0.0000000000000000e+00 0.0000000000000000e+00 0.0000000000000000e+00  0.0000000000000000e+00 0.0000000000000000e+00 0.0000000000000000e+00  -3.9492635680252510e-05 -2.1085874940210850e-05 0.0000000000000000e+00  -7.7296340960132876e-05 -4.3127915715505046e-05 0.0000000000000000e+00  -1.1150138687065464e-04 -6.7271409838415158e-05 0.0000000000000000e+00  -1.3976338462080783e-04 -9.5115609800221711e-05 0.0000000000000000e+00  -1.3486215312927673e-04 -3.8044338768311035e-05 0.0000000000000000e+00  -1.3872473393793295e-04 1.8464434394927362e-05 0.0000000000000000e+00  -9.4674805792287504e-05 1.1553925155517969e-05 0.0000000000000000e+00  -4.7120262085117534e-05 7.8117499553189580e-06 0.0000000000000000e+00  1.7101996378114233e-06 7.0057250955170820e-06 0.0000000000000000e+00  5.1066841134043278e-05 9.2312857333578052e-06 0.0000000000000000e+00  1.0041404527691258e-04 1.5199754686265942e-05 0.0000000000000000e+00  1.4831707471179477e-04 2.6724269933926669e-05 0.0000000000000000e+00  1.4452674792099317e-04 -3.3831060869793223e-05 0.0000000000000000e+00  1.4746768364892927e-04 -9.4796638138319454e-05 0.0000000000000000e+00  1.1676553588536385e-04 -6.6829858385927571e-05 0.0000000000000000e+00  8.0596972869479420e-05 -4.2783999484272879e-05 0.0000000000000000e+00  4.1086515088247580e-05 -2.0905989621515320e-05 0.0000000000000000e+00  0.0000000000000000e+00 0.0000000000000000e+00 0.0000000000000000e+00  0.0000000000000000e+00 0.0000000000000000e+00 0.0000000000000000e+00  -6.8751010972270570e-05 -2.2716183046603727e-05 0.0000000000000000e+00  -1.3795253628443859e-04 -4.6380184085534054e-05 0.0000000000000000e+00  -2.0818842269479997e-04 -7.2020146071314283e-05 0.0000000000000000e+00  -2.8038406077687345e-04 -1.0081759266943474e-04 0.0000000000000000e+00  -2.8143806593077485e-04 -3.6982699792023773e-05 0.0000000000000000e+00  -2.8083156667144761e-04 2.7748590438360817e-05 0.0000000000000000e+00  -1.8435192876765366e-04 1.8211121551576461e-05 0.0000000000000000e+00  -9.0228804162346539e-05 1.2946622954987357e-05 0.0000000000000000e+00  2.8890487039669698e-06 1.1256421046376238e-05 0.0000000000000000e+00  9.6263422614965345e-05 1.2900515205465159e-05 0.0000000000000000e+00  1.9110757808466522e-04 1.7968189865649981e-05 0.0000000000000000e+00  2.8854864077550331e-04 2.6749755534530363e-05 0.0000000000000000e+00  2.9038342975515059e-04 -3.7037195812435207e-05 0.0000000000000000e+00  2.9042733091510321e-04 -1.0034010301586749e-04 0.0000000000000000e+00  2.1506232377227567e-04 -7.1890664373799767e-05 0.0000000000000000e+00  1.4225464797334541e-04 -4.6366362139248232e-05 0.0000000000000000e+00  7.0823882996310302e-05 -2.2725582487271128e-05 0.0000000000000000e+00  0.0000000000000000e+00 0.0000000000000000e+00 0.0000000000000000e+00  0.0000000000000000e+00 0.0000000000000000e+00 0.0000000000000000e+00  -9.6203210741882902e-05 -2.0554848518176403e-05 0.0000000000000000e+00  -1.9446456265310020e-04 -4.1727812618259733e-05 0.0000000000000000e+00  -2.9702568388683846e-04 -6.4137761501680004e-05 0.0000000000000000e+00  -4.0651215529875247e-04 -8.8389827144002973e-05 0.0000000000000000e+00  -4.1049549334666542e-04 -3.6925088520697808e-05 0.0000000000000000e+00  -4.0613666142653342e-04 1.4210081429463274e-05 0.0000000000000000e+00  -2.6461361273118515e-04 7.7797016973226339e-06 0.0000000000000000e+00  -1.2932099050816999e-04 3.7869002268079317e-06 0.0000000000000000e+00  3.0418289510090657e-06 2.1722485699622650e-06 0.0000000000000000e+00  1.3558554117381301e-04 2.8776901335763730e-06 0.0000000000000000e+00  2.7142345412528980e-04 5.8833167040723769e-06 0.0000000000000000e+00  4.1387903047552366e-04 1.1190533948214408e-05 0.0000000000000000e+00  4.1870286174544867e-04 -3.9424269295443510e-05 0.0000000000000000e+00  4.1496162306890809e-04 -9.0077854991941055e-05 0.0000000000000000e+00  3.0311760301351108e-04 -6.5249539223796282e-05 0.0000000000000000e+00  1.9839729011005645e-04 -4.2413626786496398e-05 0.0000000000000000e+00  9.8129281009563080e-05 -2.0883857561499585e-05 0.0000000000000000e+00  0.0000000000000000e+00 0.0000000000000000e+00 0.0000000000000000e+00  0.0000000000000000e+00 0.0000000000000000e+00 0.0000000000000000e+00  -1.1541763635225475e-04 -1.5921019744759930e-05 0.0000000000000000e+00  -2.3377097573382976e-04 -3.2127218747836603e-05 0.0000000000000000e+00  -3.5814973514601539e-04 -4.8886459503647913e-05 0.0000000000000000e+00  -4.9195376600374031e-04 -6.6427836620038580e-05 0.0000000000000000e+00  -4.9752647943407716e-04 -3.7575508815875411e-05 0.0000000000000000e+00  -4.9173032104961496e-04 -8.7598514864317312e-06 0.0000000000000000e+00  -3.1996642171324904e-04 -1.2399820891618267e-05 0.0000000000000000e+00  -1.5669999168691198e-04 -1.4883050510450656e-05 0.0000000000000000e+00  2.4707299208495402e-06 -1.6189938002526543e-05 0.0000000000000000e+00  1.6173616761119573e-04 -1.6343588688656767e-05 0.0000000000000000e+00  3.2528042213234200e-04 -1.5405789168698132e-05 0.0000000000000000e+00  4.9748327262268285e-04 -1.3486860348089303e-05 0.0000000000000000e+00  5.0357018144504156e-04 -4.1268774226486414e-05 0.0000000000000000e+00  4.9812828425602933e-04 -6.8937697341083282e-05 0.0000000000000000e+00  3.6266504581149536e-04 -5.0638110964805797e-05 0.0000000000000000e+00  2.3672254238867588e-04 -3.3235892597328674e-05 0.0000000000000000e+00  1.1687508211326129e-04 -1.6458367072034289e-05 0.0000000000000000e+00  0.0000000000000000e+00 0.0000000000000000e+00 0.0000000000000000e+00  0.0000000000000000e+00 0.0000000000000000e+00 0.0000000000000000e+00  -1.2288560060523987e-04 -1.0146629357140434e-05 0.0000000000000000e+00  -2.4896854626056149e-04 -2.0314524585968234e-05 0.0000000000000000e+00  -3.8156097978849960e-04 -3.0506656679049729e-05 0.0000000000000000e+00  -5.2420367098127748e-04 -4.0688607939683269e-05 0.0000000000000000e+00  -5.3021785462893808e-04 -3.8364365875091204e-05 0.0000000000000000e+00  -5.2400397547914537e-04 -3.6066103720627251e-05 0.0000000000000000e+00  -3.4134286181308147e-04 -3.7205017822887433e-05 0.0000000000000000e+00  -1.6770253838679680e-04 -3.8256950588390481e-05 0.0000000000000000e+00  1.5204999962342473e-06 -3.9163646957650725e-05 0.0000000000000000e+00  1.7077736908298948e-04 -3.9929324413288398e-05 0.0000000000000000e+00  3.4451571909531605e-04 -4.0618265853512751e-05 0.0000000000000000e+00  5.2732925475152629e-04 -4.1358187903471983e-05 0.0000000000000000e+00  5.3361073549992356e-04 -4.2407851863853697e-05 0.0000000000000000e+00  5.2764290633354157e-04 -4.3379251548373100e-05 0.0000000000000000e+00  3.8411708514689578e-04 -3.2437252476102966e-05 0.0000000000000000e+00  2.5066013601441250e-04 -2.1559451413761238e-05 0.0000000000000000e+00  1.2372733800434057e-04 -1.0756412225145739e-05 0.0000000000000000e+00  -1.6491805783895151e-12 0.0000000000000000e+00 0.0000000000000000e+00  0.0000000000000000e+00 0.0000000000000000e+00 0.0000000000000000e+00  -1.1756103430506989e-04 -4.2873494851034560e-06 0.0000000000000000e+00  -2.3812146366092310e-04 -8.4050680253346718e-06 0.0000000000000000e+00  -3.6476002374209195e-04 -1.2167819722340623e-05 0.0000000000000000e+00  -5.0071231970016266e-04 -1.5358677036560777e-05 0.0000000000000000e+00  -5.0633857562918240e-04 -3.9274043845652366e-05 0.0000000000000000e+00  -5.0060806404521037e-04 -6.3205533904698327e-05 0.0000000000000000e+00  -3.2664908594638215e-04 -6.2358078166559693e-05 0.0000000000000000e+00  -1.6104206399754326e-04 -6.2211626391742557e-05 0.0000000000000000e+00  4.3496789760161503e-07 -6.2701245879860195e-05 0.0000000000000000e+00  1.6189879626490834e-04 -6.3821886884898499e-05 0.0000000000000000e+00  3.2746326348825271e-04 -6.5626868380981297e-05 0.0000000000000000e+00  5.0134155951288739e-04 -6.8228326067826871e-05 0.0000000000000000e+00  5.0699280268835713e-04 -4.3068540386876666e-05 0.0000000000000000e+00  5.0133548582846806e-04 -1.7855052618713810e-05 0.0000000000000000e+00  3.6528240488128733e-04 -1.3979895838910573e-05 0.0000000000000000e+00  2.3849438470700370e-04 -9.5841981257735947e-06 0.0000000000000000e+00  1.1775458059300984e-04 -4.8681831689520322e-06 0.0000000000000000e+00  0.0000000000000000e+00 0.0000000000000000e+00 0.0000000000000000e+00  0.0000000000000000e+00 0.0000000000000000e+00 0.0000000000000000e+00  -1.0023590506698637e-04 8.9330247735420395e-07 0.0000000000000000e+00  -2.0295542742054088e-04 2.0843668862795017e-06 0.0000000000000000e+00  -3.1069342229748627e-04 3.8832012364058094e-06 0.0000000000000000e+00  -4.2608480997586526e-04 6.6241870378051594e-06 0.0000000000000000e+00  -4.3077430534933900e-04 -4.0201248276668142e-05 0.0000000000000000e+00  -4.2611580565969930e-04 -8.7028637853827043e-05 0.0000000000000000e+00  -2.7855954988738579e-04 -8.4707984354484588e-05 0.0000000000000000e+00  -1.3786720666431824e-04 -8.3622813676704255e-05 0.0000000000000000e+00  -5.9743203095515948e-07 -8.3715550768192833e-05 0.0000000000000000e+00  1.3662391206401074e-04 -8.4977931876894697e-05 0.0000000000000000e+00  2.7716831915622424e-04 -8.7450528726907794e-05 0.0000000000000000e+00  4.2446938962622247e-04 -9.1222399056729395e-05 0.0000000000000000e+00  4.2894389709928889e-04 -4.3336386482486795e-05 0.0000000000000000e+00  4.2418156478865035e-04 4.5929026099511029e-06 0.0000000000000000e+00  3.0937720340507409e-04 2.3950392402715071e-06 0.0000000000000000e+00  2.0212967097224779e-04 1.1095981600506704e-06 0.0000000000000000e+00  9.9838240459290841e-05 4.1122056511896317e-07 0.0000000000000000e+00  0.0000000000000000e+00 0.0000000000000000e+00 0.0000000000000000e+00  0.0000000000000000e+00 0.0000000000000000e+00 0.0000000000000000e+00  -7.2973024612604348e-05 4.8828795121828707e-06 0.0000000000000000e+00  -1.4770963038465565e-04 1.0142644731485826e-05 0.0000000000000000e+00  -2.2600325038815873e-04 1.6165464149468282e-05 0.0000000000000000e+00  -3.0970535713284740e-04 2.3355824353473388e-05 0.0000000000000000e+00  -3.1311044513468651e-04 -4.1067120014620290e-05 0.0000000000000000e+00  -3.0990223750140410e-04 -1.0548235221350633e-04 0.0000000000000000e+00  -2.0302521369343612e-04 -1.0211737298273024e-04 0.0000000000000000e+00  -1.0100724851173080e-04 -1.0032360661664367e-04 0.0000000000000000e+00  -1.4356306231340096e-06 -1.0005252551486811e-04 0.0000000000000000e+00  9.8062946011826476e-05 -1.0129440115583766e-04 0.0000000000000000e+00  1.9985918684986112e-04 -1.0407846228113900e-04 0.0000000000000000e+00  3.0635834649381238e-04 -1.0847221189884361e-04 0.0000000000000000e+00  3.0931539429552408e-04 -4.3284324994416145e-05 0.0000000000000000e+00  3.0581303917883384e-04 2.1937202233898390e-05 0.0000000000000000e+00  2.2323479602918590e-04 1.5120168571649482e-05 0.0000000000000000e+00  1.4593460694170486e-04 9.4550751474601710e-06 0.0000000000000000e+00  7.2106443450208564e-05 4.5419614109532368e-06 0.0000000000000000e+00  0.0000000000000000e+00 0.0000000000000000e+00 0.0000000000000000e+00  0.0000000000000000e+00 0.0000000000000000e+00 0.0000000000000000e+00  -3.8652319746693656e-05 7.3649231181922271e-06 0.0000000000000000e+00  -7.8229082828603255e-05 1.5148679687755461e-05 0.0000000000000000e+00  -1.1966866211318364e-04 2.3777477792197164e-05 0.0000000000000000e+00  -1.6393610272775330e-04 3.3691952389857909e-05 0.0000000000000000e+00  -1.6585882907871148e-04 -4.1814623156043764e-05 0.0000000000000000e+00  -1.6432104426371451e-04 -1.1730595785669629e-04 0.0000000000000000e+00  -1.0806570201004305e-04 -1.1324302207366012e-04 0.0000000000000000e+00  -5.4366964848868147e-05 -1.1093481820446409e-04 0.0000000000000000e+00  -1.9809370936998827e-06 -1.1033871200168107e-04 0.0000000000000000e+00  5.0317336508797484e-05 -1.1144328472873990e-04 0.0000000000000000e+00  1.0375035531713810e-04 -1.1426905994540036e-04 0.0000000000000000e+00  1.5955485493285827e-04 -1.1886776782530525e-04 0.0000000000000000e+00  1.6080426655590182e-04 -4.2966566222744583e-0