<?xml version="1.0"?>
<VTKFile type="UnstructuredGrid"  version="0.1"  >
<UnstructuredGrid>
<Piece  NumberOfPoints="589" NumberOfCells="1080">
<Points>
<DataArray  type="Float64"  NumberOfComponents="3"  format="ascii">-9 0 0  -8 0 0  -7 0 0  -6 0 0  -5 0 0  -4 0 0  -3 0 0  -2 0 0  -1 0 0  0 0 0  1 0 0  2 0 0  3 0 0  4 0 0  5 0 0  6 0 0  7 0 0  8 0 0  9 0 0  -9 2 0  -8.000002998777042 1.999995855704403 0  -7.000006306153501 1.999992179379887 0  -6.000010593941278 1.999989346001418 0  -5.000017353342967 1.999987503835368 0  -4.000010773838865 1.999990786505659 0  -3.000003914889443 1.999993670231055 0  -2.000000417095554 1.999996277440416 0  -0.9999995156520827 1.999998332689689 0  -2.358240504502902e-07 1.999999239825215 0  0.9999989134590669 1.999998646934908 0  1.999999372575233 1.999996703703256 0  3.000002115188675 1.999994303807736 0  4.000007449921124 1.999991713289054 0  5.000015067067957 1.999990618780719 0  6.000009077906701 1.99999111519627 0  7.000005370469971 1.999993189343642 0  8.00000255110028 1.999996325019618 0  9 2 0  -9 4 0  -8.000004763129713 3.999989839618122 0  -7.000008690659334 3.999980987046845 0  -6.000011301406657 3.999974727191488 0  -5.000012709272295 3.99997229411038 0  -4.000003398062893 3.999973744688058 0  -2.999996992722906 3.999981519522995 0  -1.999994964801079 3.999991620245936 0  -0.9999967368826981 3.999999722104052 0  -5.964287698019834e-07 4.000003014545903 0  0.999995440421557 4.000000554754392 0  1.999993320011326 3.99999379941578 0  2.999994978715645 3.999984638148804 0  4.000000980357279 3.999975458654051 0  5.000009850343123 3.999972452618438 0  6.000009028878553 3.999975919522166 0  7.000007188641991 3.9999821326679 0  8.000004029082779 3.999990492920471 0  9 4 0  -9 6 0  -8.000009869772633 5.999978592720185 0  -7.000016342292573 5.999959424243241 0  -6.000016820421074 5.99994480165148 0  -5.000010553041892 5.999936946583899 0  -3.999992839556463 5.999948342723266 0  -2.999984563362832 5.999972108242406 0  -1.999987240745436 5.999997006681692 0  -0.9999945566082697 6.000010871385321 0  -1.959705951169169e-06 6.000013719685687 0  0.9999914551257146 6.000009295529846 0  1.999986569786485 5.999997032234506 0  2.999984996795989 5.999976360398519 0  3.99998943795008 5.999954972994952 0  5.000004451425804 5.999944520578982 0  6.000013054947648 5.99994973922942 0  7.000014284002785 5.999962487972025 0  8.000008984999525 5.999980073905242 0  9 6 0  -9 8 0  -8.000028564702552 7.999958392541817 0  -7.000047970794781 7.999919679963977 0  -6.000049321112554 7.999887808032797 0  -5.000024945474832 7.999869302621719 0  -3.999991196318647 7.99992161219444 0  -2.999996969227849 7.999983088992658 0  -2.000009175877827 8.000013127814865 0  -1.0000099132476 8.000016670537248 0  -2.130731354603019e-06 8.000017698783534 0  1.000003832700103 8.00002059342928 0  2.000001936322465 8.000008199016476 0  2.999987989988897 7.999986977992196 0  3.99998373868856 7.999934859320091 0  5.000016773534803 7.999876185189065 0  6.00004657748318 7.99989344133495 0  7.000047489982495 7.999923496637124 0  8.000028683503555 7.999960295862086 0  9 8 0  -9 10 0  -8.000083884549545 9.999926620556831 0  -7.000151811837974 9.999852584997209 0  -6.000184715937992 9.99977736793563 0  -5.000156015485159 9.999700745038144 0  -4.000102824066371 9.999868804622162 0  -3.00011074178626 10.00001349775836 0  -2.000088570262276 9.999989080920427 0  -1.000041593731436 9.999981251519193 0  -6.883635555176098e-06 9.999979354604161 0  1.00002749713791 9.999979467327091 0  2.000072930827104 9.999978470802041 0  3.000113457795466 10.00002921704214 0  4.000109453298698 9.999893595584785 0  5.000169087610596 9.999715095475896 0  6.000195645935606 9.999785962187497 0  7.000159559354869 9.999857538238079 0  8.000087881873299 9.999928903670392 0  9 10 0  -9 12 0  -8.000202989690694 11.99989748932416 0  -7.000395674400091 11.99979024342085 0  -6.000566392485061 11.99967259856107 0  -5.000700714998948 11.99953665200864 0  -4.000673652276272 11.99984185914033 0  -3.000697498313724 12.00014409001618 0  -2.000480483520564 12.00010732310048 0  -1.000239593304188 12.00008723465743 0  1.039627037436833e-05 12.00008294068576 0  1.000263064766636 12.00009503375161 0  2.000513096111481 12.00012715294318 0  3.000749777619871 12.00018845103342 0  4.000725133076343 11.99986536915714 0  5.00074210904878 11.99953974353998 0  6.000595197275636 11.99967568073095 0  7.000413943785977 11.99979244393323 0  8.000211867949426 11.99989860133025 0  9 12 0  -9 14 0  -8.000363224926271 13.99988731725786 0  -7.000727259994994 13.99976952921044 0  -6.001093406350062 13.99964108191653 0  -5.001464284431944 13.99949554560026 0  -4.001467976671918 13.99985097075838 0  -3.001469468635685 14.00021095757329 0  -2.000968067229919 14.00015888535863 0  -1.000474065504876 14.00013006965342 0  1.697904945728133e-05 14.00012100574165 0  1.000509308368406 14.0001305287945 0  2.001006904592141 14.00015916732276 0  3.001513019179513 14.00020849958627 0  4.001518063375093 13.99985246820639 0  5.00152013802602 13.999498729125 0  6.001131902892941 13.99964216478527 0  7.000751493126072 13.99976981436113 0  8.000374944783589 13.99988735660639 0  9 14 0  -9 16 0  -8.000520097531959 15.99989757839497 0  -7.00105019978139 15.99979147734061 0  -6.001601170716949 15.99967795938662 0  -5.002185672796311 15.99955323922158 0  -4.002206190797019 15.99985540454336 0  -3.002186169788265 16.00015592189004 0  -2.001426365931239 16.00011751881343 0  -1.000696847787841 16.0000939755599 0  1.842558297692405e-05 16.00008479322979 0  1.000734626534837 16.00008963092821 0  2.001466942247402 16.00010847552497 0  3.00223153784668 16.000141564707 0  4.002254176177335 15.99984297340287 0  5.002235087706649 15.99954413107574 0  6.00163695036242 15.9996718391075 0  7.001073380784052 15.99978764641048 0  8.000531478543207 15.99989572426504 0  9 16 0  -9 18 0  -8.000636823726026 17.99992256023469 0  -7.001289435534215 17.99984310572209 0  -6.001974442696814 17.99975966522979 0  -5.002710101184391 17.99967037053407 0  -4.002741047295934 17.99985607608621 0  -3.002710832935803 18.00004152538936 0  -2.001763920810118 18.00001679173254 0  -1.000862838529643 18.00000051903357 0  1.615256548720276e-05 17.999992580889 0  1.000895651793577 17.99999278381538 0  2.00179822772115 18.00000088014344 0  3.00274751232786 18.00001652259743 0  4.002779546412871 17.99983568751574 0  5.002749529756369 17.99965539094107 0  6.002003323058454 17.99974914489376 0  7.001308345795334 17.99983641380444 0  8.000646172946261 17.99991930661395 0  9 18 0  -9 20 0  -8.000690279498171 19.99995559871205 0  -7.0013988568201 19.99991068041773 0  -6.002144726140907 19.99986479345768 0  -5.002948277030598 19.99981761867944 0  -4.002983471178247 19.99985554809349 0  -3.002948498377776 19.9998932318691 0  -2.001918601412839 19.99988227720212 0  -1.000940677842455 19.9998737827245 0  1.183677067509072e-05 19.99986786246166 0  1.000964559789645 19.99986441918397 0  2.001943093288021 19.99986315176202 0  3.002973958816334 19.99986353811949 0  4.003009544792898 19.99983173948656 0  5.002974757115251 19.99980032953292 0  6.002164366489081 19.99985239788204 0  7.001411840200691 19.99990268879184 0  8.000696736869287 19.99995168428813 0  8.999999999994303 20.0000000000031 0  -9 22 0  -8.000670435783997 21.9999907025008 0  -7.001358880159352 21.99998212851749 0  -6.00208389890229 21.99997507228139 0  -5.002865170266851 21.99997047065201 0  -4.002899473846242 21.99985361982228 0  -3.002865240924273 21.99973653532061 0  -2.001865836405222 21.99973793935067 0  -1.000917092706645 21.9997367689014 0  6.685917305448599e-06 21.99973325542187 0  1.000930434267751 21.99972736869728 0  2.001879074117322 21.99971882197836 0  3.002878262508632 21.99970706747298 0  4.00291221139341 21.9998301142105 0  5.002877790124441 21.9999534230821 0  6.002093559587372 21.99996275835747 0  7.001365406748039 21.99997414255062 0  8.000673723178595 21.9999867763513 0  9 22 0  -9 24 0  -8.00057844787967 24.0000229118018 0  -7.001172373097936 24.00004750481655 0  -6.001797673803809 24.00007553081988 0  -5.002471072494449 24.00010888383145 0  -4.002500492653222 23.99985060433936 0  -3.002471227539719 23.99959214845187 0  -2.001610860472196 23.99960388066554 0  -1.000793847066527 23.99960910949059 0  1.6661040438636e-06 23.99960812343732 0  1.000796963401325 23.99960093886462 0  2.001613316976732 23.9995873011953 0  3.00247254425392 23.9995666832904 0  4.002500813408932 23.99983038194834 0  5.00247091157799 24.00009427683874 0  6.0017980664135 24.00006492015365 0  7.001172872961546 24.00004059553482 0  8.000578766886633 24.00001950657989 0  9 24 0  -9 26 0  -8.000424424458371 26.00004839806625 0  -7.000860124623246 26.00009915033589 0  -6.001318659485121 26.00015468041479 0  -5.001812134657182 26.00021755219149 0  -4.001833696108712 25.99984683092987 0  -3.001812564851618 25.99947599436907 0  -2.001182882810556 25.99949579646161 0  -1.000584788739528 25.99950626977743 0  -2.4726399448296e-06 25.99950774513283 0  1.000579492463351 25.99950027978181 0  2.001176521788783 25.99948365762134 0  3.001804387127807 25.99945738815014 0  4.001824016139561 25.99983210358061 0  5.00180171426258 26.00020694967676 0  6.001311593623826 26.00014695371815 0  7.000855763869087 26.00009410672975 0  8.00042234702639 26.00004590855389 0  9 26 0  -9 28 0  -8.000225155610849 28.00006446979682 0  -7.000456275753656 28.00013168575946 0  -6.000699473832732 28.00020446278906 0  -5.000961133897285 28.00028575383894 0  -4.000972864451308 27.99984266677996 0  -3.000961971425892 27.9993995374674 0  -2.000628959406569 27.99942498616965 0  -1.000312802535977 27.99943937953865 0  -5.189968397412032e-06 27.99944308693336 0  1.000301988316418 27.99943620499304 0  2.0006168293304 27.99941855711252 0  3.000947603648465 27.99938969343384 0  4.000956691705443 27.99983489772783 0  5.000944070280343 28.00028018254622 0  6.000687572870868 28.00020039456635 0  7.000448761843073 28.00012902620918 0  8.000221522895179 28.000063
[...]
<PointData  Vectors="f_42"> 
<DataArray  type="Float64"  Name="f_42"  NumberOfComponents="3" format="ascii">0.0000000000000000e+00 0.0000000000000000e+00 0.0000000000000000e+00  0.0000000000000000e+00 0.0000000000000000e+00 0.0000000000000000e+00  0.0000000000000000e+00 0.0000000000000000e+00 0.0000000000000000e+00  0.0000000000000000e+00 0.0000000000000000e+00 0.0000000000000000e+00  0.0000000000000000e+00 0.0000000000000000e+00 0.0000000000000000e+00  0.0000000000000000e+00 0.0000000000000000e+00 0.0000000000000000e+00  0.0000000000000000e+00 0.0000000000000000e+00 0.0000000000000000e+00  0.0000000000000000e+00 0.0000000000000000e+00 0.0000000000000000e+00  0.0000000000000000e+00 0.0000000000000000e+00 0.0000000000000000e+00  0.0000000000000000e+00 0.0000000000000000e+00 0.0000000000000000e+00  0.0000000000000000e+00 0.0000000000000000e+00 0.0000000000000000e+00  0.0000000000000000e+00 0.0000000000000000e+00 0.0000000000000000e+00  0.0000000000000000e+00 0.0000000000000000e+00 0.0000000000000000e+00  0.0000000000000000e+00 0.0000000000000000e+00 0.0000000000000000e+00  0.0000000000000000e+00 0.0000000000000000e+00 0.0000000000000000e+00  0.0000000000000000e+00 0.0000000000000000e+00 0.0000000000000000e+00  0.0000000000000000e+00 0.0000000000000000e+00 0.0000000000000000e+00  0.0000000000000000e+00 0.0000000000000000e+00 0.0000000000000000e+00  0.0000000000000000e+00 0.0000000000000000e+00 0.0000000000000000e+00  0.0000000000000000e+00 0.0000000000000000e+00 0.0000000000000000e+00  -2.9987770427148995e-06 -4.1442955968465298e-06 0.0000000000000000e+00  -6.3061535005774759e-06 -7.8206201129373769e-06 0.0000000000000000e+00  -1.0593941276912461e-05 -1.0653998582726158e-05 0.0000000000000000e+00  -1.7353342968884685e-05 -1.2496164632246849e-05 0.0000000000000000e+00  -1.0773838864071195e-05 -9.2134943414181925e-06 0.0000000000000000e+00  -3.9148894443926970e-06 -6.3297689445001433e-06 0.0000000000000000e+00  -4.1709555262911134e-07 -3.7225595841945394e-06 0.0000000000000000e+00  4.8434791712407840e-07 -1.6673103112259591e-06 0.0000000000000000e+00  -2.3582405045029024e-07 -7.6017478493863400e-07 0.0000000000000000e+00  -1.0865409327936982e-06 -1.3530650912472842e-06 0.0000000000000000e+00  -6.2742476908169578e-07 -3.2962967433984416e-06 0.0000000000000000e+00  2.1151886761439872e-06 -5.6961922648581313e-06 0.0000000000000000e+00  7.4499211232998930e-06 -8.2867109459797503e-06 0.0000000000000000e+00  1.5067067955025221e-05 -9.3812192812575810e-06 0.0000000000000000e+00  9.0779066976533910e-06 -8.8848037301025492e-06 0.0000000000000000e+00  5.3704699723244090e-06 -6.8106563574329396e-06 0.0000000000000000e+00  2.5511002743025457e-06 -3.6749803824487099e-06 0.0000000000000000e+00  0.0000000000000000e+00 0.0000000000000000e+00 0.0000000000000000e+00  0.0000000000000000e+00 0.0000000000000000e+00 0.0000000000000000e+00  -4.7631297107304276e-06 -1.0160381878275832e-05 0.0000000000000000e+00  -8.6906593277571128e-06 -1.9012953156035186e-05 0.0000000000000000e+00  -1.1301406658334791e-05 -2.5272808512319996e-05 0.0000000000000000e+00  -1.2709272298283876e-05 -2.7705889619873126e-05 0.0000000000000000e+00  -3.3980628932600769e-06 -2.6255311941526963e-05 0.0000000000000000e+00  3.0072770942772276e-06 -1.8480477004324328e-05 0.0000000000000000e+00  5.0351989200971420e-06 -8.3797540635633257e-06 0.0000000000000000e+00  3.2631173019513282e-06 -2.7789594511779939e-07 0.0000000000000000e+00  -5.9642876980198338e-07 3.0145459039722802e-06 0.0000000000000000e+00  -4.5595784435459485e-06 5.5475439323938370e-07 0.0000000000000000e+00  -6.6799886730580805e-06 -6.2005842208577347e-06 0.0000000000000000e+00  -5.0212843525055886e-06 -1.5361851197177631e-05 0.0000000000000000e+00  9.8035727650702354e-07 -2.4541345948957284e-05 0.0000000000000000e+00  9.8503431207891959e-06 -2.7547381560718760e-05 0.0000000000000000e+00  9.0288785487689930e-06 -2.4080477835298462e-05 0.0000000000000000e+00  7.1886419919404645e-06 -1.7867332098539644e-05 0.0000000000000000e+00  4.0290827872389620e-06 -9.5070795277976763e-06 0.0000000000000000e+00  0.0000000000000000e+00 0.0000000000000000e+00 0.0000000000000000e+00  0.0000000000000000e+00 0.0000000000000000e+00 0.0000000000000000e+00  -9.8697726311389569e-06 -2.1407279816256097e-05 0.0000000000000000e+00  -1.6342292572796174e-05 -4.0575756756524223e-05 0.0000000000000000e+00  -1.6820421072660631e-05 -5.5198348521581348e-05 0.0000000000000000e+00  -1.0553041888696598e-05 -6.3053416099513387e-05 0.0000000000000000e+00  7.1604435382424736e-06 -5.1657276730892965e-05 0.0000000000000000e+00  1.5436637167892330e-05 -2.7891757591473863e-05 0.0000000000000000e+00  1.2759254564123552e-05 -2.9933183096761115e-06 0.0000000000000000e+00  5.4433917304484291e-06 1.0871385321634674e-05 0.0000000000000000e+00  -1.9597059511691687e-06 1.3719685685538166e-05 0.0000000000000000e+00  -8.5448742856083551e-06 9.2955298486474568e-06 0.0000000000000000e+00  -1.3430213515222433e-05 -2.9677654939469840e-06 0.0000000000000000e+00  -1.5003204011860150e-05 -2.3639601477954406e-05 0.0000000000000000e+00  -1.0562049920755585e-05 -4.5027005046994365e-05 0.0000000000000000e+00  4.4514258043540363e-06 -5.5479421017891118e-05 0.0000000000000000e+00  1.3054947646016350e-05 -5.0260770578975761e-05 0.0000000000000000e+00  1.4284002782735931e-05 -3.7512027977126857e-05 0.0000000000000000e+00  8.9849995272421329e-06 -1.9926094758383173e-05 0.0000000000000000e+00  0.0000000000000000e+00 0.0000000000000000e+00 0.0000000000000000e+00  0.0000000000000000e+00 0.0000000000000000e+00 0.0000000000000000e+00  -2.8564702559456693e-05 -4.1607458180870058e-05 0.0000000000000000e+00  -4.7970794780519477e-05 -8.0320036025519499e-05 0.0000000000000000e+00  -4.9321112554949638e-05 -1.1219196720743583e-04 0.0000000000000000e+00  -2.4945474833750772e-05 -1.3069737827879778e-04 0.0000000000000000e+00  8.8036813531637159e-06 -7.8387805561661790e-05 0.0000000000000000e+00  3.0307721501945248e-06 -1.6911007341754128e-05 0.0000000000000000e+00  -9.1758778275644321e-06 1.3127814867733231e-05 0.0000000000000000e+00  -9.9132476001683682e-06 1.6670537246063126e-05 0.0000000000000000e+00  -2.1307313546030195e-06 1.7698783530531034e-05 0.0000000000000000e+00  3.8327001038369776e-06 2.0593429278117438e-05 0.0000000000000000e+00  1.9363224638283328e-06 8.1990164723978668e-06 0.0000000000000000e+00  -1.2010011103173036e-05 -1.3022007800822566e-05 0.0000000000000000e+00  -1.6261311439189320e-05 -6.5140679908018141e-05 0.0000000000000000e+00  1.6773534799490117e-05 -1.2381481093829021e-04 0.0000000000000000e+00  4.6577483182664992e-05 -1.0655866504833386e-04 0.0000000000000000e+00  4.7489982494635405e-05 -7.6503362878670549e-05 0.0000000000000000e+00  2.8683503555724953e-05 -3.9704137914863826e-05 0.0000000000000000e+00  0.0000000000000000e+00 0.0000000000000000e+00 0.0000000000000000e+00  0.0000000000000000e+00 0.0000000000000000e+00 0.0000000000000000e+00  -8.3884549541814207e-05 -7.3379443169167748e-05 0.0000000000000000e+00  -1.5181183797246498e-04 -1.4741500278988434e-04 0.0000000000000000e+00  -1.8471593798960885e-04 -2.2263206437070753e-04 0.0000000000000000e+00  -1.5601548515931451e-04 -2.9925496185767689e-04 0.0000000000000000e+00  -1.0282406636964850e-04 -1.3119537783861995e-04 0.0000000000000000e+00  -1.1074178626142046e-04 1.3497758352292292e-05 0.0000000000000000e+00  -8.8570262278145736e-05 -1.0919079567239333e-05 0.0000000000000000e+00  -4.1593731435849700e-05 -1.8748480804822142e-05 0.0000000000000000e+00  -6.8836355551760981e-06 -2.0645395846141652e-05 0.0000000000000000e+00  2.7497137910328961e-05 -2.0532672908185796e-05 0.0000000000000000e+00  7.2930827103873409e-05 -2.1529197960561565e-05 0.0000000000000000e+00  1.1345779546584283e-04 2.9217042141601083e-05 0.0000000000000000e+00  1.0945329870068419e-04 -1.0640441521613412e-04 0.0000000000000000e+00  1.6908761059728652e-04 -2.8490452410619111e-04 0.0000000000000000e+00  1.9564593560584206e-04 -2.1403781249839496e-04 0.0000000000000000e+00  1.5955935486725573e-04 -1.4246176192241590e-04 0.0000000000000000e+00  8.7881873296515026e-05 -7.1096329607901396e-05 0.0000000000000000e+00  0.0000000000000000e+00 0.0000000000000000e+00 0.0000000000000000e+00  0.0000000000000000e+00 0.0000000000000000e+00 0.0000000000000000e+00  -2.0298969069422072e-04 -1.0251067583200156e-04 0.0000000000000000e+00  -3.9567440009084787e-04 -2.0975657914509794e-04 0.0000000000000000e+00  -5.6639248505983527e-04 -3.2740143893085347e-04 0.0000000000000000e+00  -7.0071499894865075e-04 -4.6334799135720474e-04 0.0000000000000000e+00  -6.7365227627392296e-04 -1.5814085967701474e-04 0.0000000000000000e+00  -6.9749831372370962e-04 1.4409001618282137e-04 0.0000000000000000e+00  -4.8048352056372041e-04 1.0732310048302192e-04 0.0000000000000000e+00  -2.3959330418758581e-04 8.7234657437022030e-05 0.0000000000000000e+00  1.0396270374368332e-05 8.2940685761494819e-05 0.0000000000000000e+00  2.6306476663594068e-04 9.5033751612684346e-05 0.0000000000000000e+00  5.1309611148024213e-04 1.2715294317777948e-04 0.0000000000000000e+00  7.4977761987054744e-04 1.8845103341417961e-04 0.0000000000000000e+00  7.2513307634540253e-04 -1.3463084285470669e-04 0.0000000000000000e+00  7.4210904877770596e-04 -4.6025646001588609e-04 0.0000000000000000e+00  5.9519727563575977e-04 -3.2431926904732809e-04 0.0000000000000000e+00  4.1394378598002754e-04 -2.0755606676395869e-04 0.0000000000000000e+00  2.1186794942441216e-04 -1.0139866975539475e-04 0.0000000000000000e+00  0.0000000000000000e+00 0.0000000000000000e+00 0.0000000000000000e+00  0.0000000000000000e+00 0.0000000000000000e+00 0.0000000000000000e+00  -3.6322492627458632e-04 -1.1268274214010846e-04 0.0000000000000000e+00  -7.2725999499360244e-04 -2.3047078956315721e-04 0.0000000000000000e+00  -1.0934063500615768e-03 -3.5891808346832568e-04 0.0000000000000000e+00  -1.4642844319444927e-03 -5.0445439973741590e-04 0.0000000000000000e+00  -1.4679766719199888e-03 -1.4902924160869926e-04 0.0000000000000000e+00  -1.4694686356829852e-03 2.1095757329329847e-04 0.0000000000000000e+00  -9.6806722992109960e-04 1.5888535862488228e-04 0.0000000000000000e+00  -4.7406550487449922e-04 1.3006965341723199e-04 0.0000000000000000e+00  1.6979049457281330e-05 1.2100574165341555e-04 0.0000000000000000e+00  5.0930836840619236e-04 1.3052879450888819e-04 0.0000000000000000e+00  1.0069045921406246e-03 1.5916732274899424e-04 0.0000000000000000e+00  1.5130191795130980e-03 2.0849958626645962e-04 0.0000000000000000e+00  1.5180633750894706e-03 -1.4753179361573864e-04 0.0000000000000000e+00  1.5201380260202026e-03 -5.0127087499619622e-04 0.0000000000000000e+00  1.1319028929410305e-03 -3.5783521473899393e-04 0.0000000000000000e+00  7.5149312607209297e-04 -2.3018563887043788e-04 0.0000000000000000e+00  3.7494478358745360e-04 -1.1264339361249350e-04 0.0000000000000000e+00  0.0000000000000000e+00 0.0000000000000000e+00 0.0000000000000000e+00  0.0000000000000000e+00 0.0000000000000000e+00 0.0000000000000000e+00  -5.2009753196229330e-04 -1.0242160504106835e-04 0.0000000000000000e+00  -1.0501997813898961e-03 -2.0852265938779669e-04 0.0000000000000000e+00  -1.6011707169485429e-03 -3.2204061338184434e-04 0.0000000000000000e+00  -2.1856727963130325e-03 -4.4676077843269779e-04 0.0000000000000000e+00  -2.2061907970180317e-03 -1.4459545663350875e-04 0.0000000000000000e+00  -2.1861697882662361e-03 1.5592189002776208e-04 0.0000000000000000e+00  -1.4263659312379222e-03 1.1751881342893235e-04 0.0000000000000000e+00  -6.9684778784031751e-04 9.3975559887715828e-05 0.0000000000000000e+00  1.8425582976924046e-05 8.4793229791700966e-05 0.0000000000000000e+00  7.3462653483763257e-04 8.9630928211726862e-05 0.0000000000000000e+00  1.4669422474008005e-03 1.0847552496592374e-04 0.0000000000000000e+00  2.2315378466820227e-03 1.4156470699793161e-04 0.0000000000000000e+00  2.2541761773337671e-03 -1.5702659712796318e-04 0.0000000000000000e+00  2.2350877066497168e-03 -4.5586892426248318e-04 0.0000000000000000e+00  1.6369503624235353e-03 -3.2816089250679924e-04 0.0000000000000000e+00  1.0733807840520686e-03 -2.1235358952427678e-04 0.0000000000000000e+00  5.3147854320566680e-04 -1.0427573495124444e-04 0.0000000000000000e+00  0.0000000000000000e+00 0.0000000000000000e+00 0.0000000000000000e+00  0.0000000000000000e+00 0.0000000000000000e+00 0.0000000000000000e+00  -6.3682372601807477e-04 -7.7439765301101139e-05 0.0000000000000000e+00  -1.2894355342144312e-03 -1.5689427789734390e-04 0.0000000000000000e+00  -1.9744426968127302e-03 -2.4033477021439585e-04 0.0000000000000000e+00  -2.7101011843939232e-03 -3.2962946593112811e-04 0.0000000000000000e+00  -2.7410472959345233e-03 -1.4392391380224336e-04 0.0000000000000000e+00  -2.7108329358039324e-03 4.1525389354289254e-05 0.0000000000000000e+00  -1.7639208101182385e-03 1.6791732539335125e-05 0.0000000000000000e+00  -8.6283852964447140e-04 5.1903356285702393e-07 0.0000000000000000e+00  1.6152565487202763e-05 -7.4191110032732427e-06 0.0000000000000000e+00  8.9565179357766844e-04 -7.2161846091765776e-06 0.0000000000000000e+00  1.7982277211492212e-03 8.8014343645657730e-07 0.0000000000000000e+00  2.7475123278575498e-03 1.6522597421836775e-05 0.0000000000000000e+00  2.7795464128696433e-03 -1.6431248425184059e-04 0.0000000000000000e+00  2.7495297563678660e-03 -3.4460905894490929e-04 0.0000000000000000e+00  2.0033230584528394e-03 -2.5085510625331048e-04 0.0000000000000000e+00  1.3083457953358066e-03 -1.6358619556616343e-04 0.0000000000000000e+00  6.4617294625974892e-04 -8.0693386045149821e-05 0.0000000000000000e+00  0.0000000000000000e+00 0.0000000000000000e+00 0.0000000000000000e+00  0.0000000000000000e+00 0.0000000000000000e+00 0.0000000000000000e+00  -6.9027949816544631e-04 -4.4401287949424108e-05 0.0000000000000000e+00  -1.3988568200981805e-03 -8.9319582262796223e-05 0.0000000000000000e+00  -2.1447261409081207e-03 -1.3520654230368020e-04 0.0000000000000000e+00  -2.9482770305979478e-03 -1.8238132054973486e-04 0.0000000000000000e+00  -2.9834711782449354e-03 -1.4445190649387018e-04 0.0000000000000000e+00  -2.9484983777760599e-03 -1.0676813089396631e-04 0.0000000000000000e+00  -1.9186014128396952e-03 -1.1772279786758143e-04 0.0000000000000000e+00  -9.4067784245583763e-04 -1.2621727549116301e-04 0.0000000000000000e+00  1.1836770675090720e-05 -1.3213753833119790e-04 0.0000000000000000e+00  9.6455978964499970e-04 -1.3558081603282275e-04 0.0000000000000000e+00  1.9430932880226655e-03 -1.3684823798653991e-04 0.0000000000000000e+00  2.9739588163342581e-03 -1.3646188051970627e-04 0.0000000000000000e+00  3.0095447929021288e-03 -1.6826051345007794e-04 0.0000000000000000e+00  2.9747571152509921e-03 -1.9967046707490961e-04 0.0000000000000000e+00  2.1643664890794861e-03 -1.4760211794932361e-04 0.0000000000000000e+00  1.4118402006911895e-03 -9.7311208164366458e-05 0.0000000000000000e+00  6.9673686928201106e-04 -4.8315711865784806e-05 0.0000000000000000e+00  -5.7019791346364302e-12 3.1021013990480741e-12 0.0000000000000000e+00  0.0000000000000000e+00 0.0000000000000000e+00 0.0000000000000000e+00  -6.7043578399514868e-04 -9.2974991999213996e-06 0.0000000000000000e+00  -1.3588801593540712e-03 -1.7871482508719918e-05 0.0000000000000000e+00  -2.0838989022887652e-03 -2.4927718593798005e-05 0.0000000000000000e+00  -2.8651702668507687e-03 -2.9529347991866434e-05 0.0000000000000000e+00  -2.8994738462409949e-03 -1.4638017771542570e-04 0.0000000000000000e+00  -2.8652409242745239e-03 -2.6346467938794243e-04 0.0000000000000000e+00  -1.8658364052209046e-03 -2.6206064932517576e-04 0.0000000000000000e+00  -9.1709270664509389e-04 -2.6323109858909707e-04 0.0000000000000000e+00  6.6859173054485990e-06 -2.6674457814847866e-04 0.0000000000000000e+00  9.3043426775118207e-04 -2.7263130272969305e-04 0.0000000000000000e+00  1.8790741173227423e-03 -2.8117802163881285e-04 0.0000000000000000e+00  2.8782625086310985e-03 -2.9293252701869792e-04 0.0000000000000000e+00  2.9122113934118309e-03 -1.6988578949177921e-04 0.0000000000000000e+00  2.8777901244423430e-03 -4.6576917903809238e-05 0.0000000000000000e+00  2.0935595873728509e-03 -3.7241642529826048e-05 0.0000000000000000e+00  1.3654067480366767e-03 -2.5857449361611557e-05 0.0000000000000000e+00  6.7372317859507112e-04 -1.3223648699977819e-05 0.0000000000000000e+00  0.0000000000000000e+00 0.0000000000000000e+00 0.0000000000000000e+00  0.0000000000000000e+00 0.0000000000000000e+00 0.0000000000000000e+00  -5.7844787966646331e-04 2.2911801809755484e-05 0.0000000000000000e+00  -1.1723730979352623e-03 4.7504816558942578e-05 0.0000000000000000e+00  -1.7976738038112908e-03 7.5530819885309794e-05 0.0000000000000000e+00  -2.4710724944462395e-03 1.0888383145165109e-04 0.0000000000000000e+00  -2.5004926532211443e-03 -1.4939566062559712e-04 0.0000000000000000e+00  -2.4712275397176329e-03 -4.0785154813586876e-04 0.0000000000000000e+00  -1.6108604721956376e-03 -3.9611933445179781e-04 0.0000000000000000e+00  -7.9384706652600224e-04 -3.9089050941169243e-04 0.0000000000000000e+00  1.6661040438636000e-06 -3.9187656268325989e-04 0.0000000000000000e+00  7.9696340132468706e-04 -3.9906113537863943e-04 0.0000000000000000e+00  1.6133169767339178e-03 -4.1269880469873888e-04 0.0000000000000000e+00  2.4725442539198202e-03 -4.3331670959333455e-04 0.0000000000000000e+00  2.5008134089293237e-03 -1.6961805166440660e-04 0.0000000000000000e+00  2.4709115779913316e-03 9.4276838728959714e-05 0.0000000000000000e+00  1.7980664135043016e-03 6.4920153656049644e-05 0.0000000000000000e+00  1.1728729615451715e-03 4.0595534822218833e-05 0.0000000000000000e+00  5.7876688663240365e-04 1.9506579899556196e-05 0.0000000000000000e+00  0.0000000000000000e+00 0.0000000000000000e+00 0.0000000000000000e+00  0.0000000000000000e+00 0.0000000000000000e+00 0.0000000000000000e+00  -4.2442445837895151e-04 4.8398066250304884e-05 0.0000000000000000e+00  -8.6012462324782475e-04 9.9150335906621770e-05 0.0000000000000000e+00  -1.3186594851217128e-03 1.5468041477971985e-04 0.0000000000000000e+00  -1.8121346571795299e-03 2.1755219149418857e-04 0.0000000000000000e+00  -1.8336961087126187e-03 -1.5316907012469789e-04 0.0000000000000000e+00  -1.8125648516152597e-03 -5.2400563092445571e-04 0.0000000000000000e+00  -1.1828828105565883e-03 -5.0420353838391910e-04 0.0000000000000000e+00  -5.8478873952742913e-04 -4.9373022256638910e-04 0.0000000000000000e+00  -2.4726399448296005e-06 -4.9225486716844590e-04 0.0000000000000000e+00  5.7949246335078604e-04 -4.9972021817760147e-04 0.0000000000000000e+00  1.1765217887821182e-03 -5.1634237866336795e-04 0.0000000000000000e+00  1.8043871278064485e-03 -5.4261184987312015e-04 0.0000000000000000e+00  1.8240161395620487e-03 -1.6789641940311248e-04 0.0000000000000000e+00  1.8017142625777662e-03 2.0694967676876115e-04 0.0000000000000000e+00  1.3115936238241636e-03 1.4695371814134027e-04 0.0000000000000000e+00  8.5576386908625386e-04 9.4106729756537029e-05 0.0000000000000000e+00  4.2234702639614710e-04 4.5908553894905787e-05 0.0000000000000000e+00  0.0000000000000000e+00 0.0000000000000000e+00 0.0000000000000000e+00  0.0000000000000000e+00 0.0000000000000000e+00 0.0000000000000000e+00  -2.2515561084133777e-04 6.4469796814926129e-05 0.0000000000000000e+00  -4.5627575365811879e-04 1.3168575944958903e-04 0.0000000000000000e+00  -6.9947383273119979e-04 2.0446278907183861e-04 0.0000000000000000e+00  -9.6113389728795789e-04 2.8575383893597361e-04 0.0000000000000000e+00  -9.7286445131023944e-04 -1.5733322003478055e-04 0.0000000000000000e+00  -9.6197142589050271e-04 -6.0046253260698050e-04 0.0000000000000000e+00  -6.2895940656806785e-04 -5.7501383036912142e-04 0.0000000000000000e+00  -3.1280253597662744e-04 -5.6062046136027448e-04 0.0000000000000000e+00  -5.1899683974120323e-06 -5.5691306663153376e-04 0.0000000000000000e+00  3.0198831641782672e-04 -5.6379500695839411e-04 0.0000000000000000e+00  6.1682933040017331e-04 -5.8144288747717697e-04 0.0000000000000000e+00  9.4760364846730989e-04 -6.1030656618804688e-04 0.0000000000000000e+00  9.5669170544111011e-04 -1.6510227216749439e-04 0.0000000000000000e