<?xml version="1.0"?>
<VTKFile type="UnstructuredGrid"  version="0.1"  >
<UnstructuredGrid>
<Piece  NumberOfPoints="589" NumberOfCells="1080">
<Points>
<DataArray  type="Float64"  NumberOfComponents="3"  format="ascii">-9 0 0  -8 0 0  -7 0 0  -6 0 0  -5 0 0  -4 0 0  -3 0 0  -2 0 0  -1 0 0  0 0 0  1 0 0  2 0 0  3 0 0  4 0 0  5 0 0  6 0 0  7 0 0  8 0 0  9 0 0  -9 2 0  -8.00000808186797 1.999988025085671 0  -7.000016966367231 1.999977502501811 0  -6.000028512086519 1.999969608651776 0  -5.000046943752939 1.999964850346755 0  -4.000028078789621 1.99997380154758 0  -3.000008615766332 1.999982164563171 0  -1.999999027154879 1.999989958001571 0  -0.9999972262563581 1.999996113137654 0  -2.868069688086756e-07 1.999998812831578 0  0.9999963022256855 1.999996953412579 0  1.999996919292865 1.999990983510268 0  3.000004513134564 1.999983651094615 0  4.000020009744353 1.999975785526825 0  5.000042400299612 1.999972532654008 0  6.000025601370997 1.999973759664716 0  7.000015220483968 1.999979792207475 0  8.000007263341777 1.999989070045275 0  9 2 0  -9 4 0  -8.000012953014732 3.999970241663689 0  -7.000023287884483 3.999944490676848 0  -6.00002948027688 3.999926675453166 0  -5.000031859091679 3.999920549087735 0  -4.000004527784999 3.999924662871419 0  -2.999986081189502 3.999948022093503 0  -1.999981025139014 3.999978426783749 0  -0.9999875901124248 4.000002871006912 0  -4.913056160674201e-07 4.000012731884536 0  0.9999863246249402 4.000005060814915 0  1.999978808896707 3.999984304130602 0  2.999982912842687 3.999956194519001 0  4.000000434269296 3.999927930665143 0  5.000026988468382 3.999918457462465 0  6.000025530359022 3.999928297740801 0  7.00002074575568 3.999946604112561 0  8.000011751130561 3.999971532532935 0  9 4 0  -9 6 0  -8.000028295737314 5.999936432796739 0  -7.000046179249125 5.999879739447352 0  -6.000045702821269 5.999836990316684 0  -5.000024581724219 5.999814973121896 0  -3.999971490815683 5.999849518335001 0  -2.999947191775422 5.999921696287246 0  -1.999956368771384 5.999997351290014 0  -0.9999797117157591 6.000039430292328 0  -3.342198529836426e-06 6.000047905997127 0  0.9999754549357465 6.000034275629676 0  1.999959392015999 5.999996577478417 0  2.999953570802695 5.9999329071452 0  3.999966350054738 5.999866893004458 0  5.000011680210321 5.999834231212274 0  6.000038765302213 5.999848974814265 0  7.000043110057097 5.999886931711687 0  8.00002726336942 5.999939842540698 0  9 6 0  -9 8 0  -8.000085276004455 7.999875146657842 0  -7.000142503528425 7.999759230851551 0  -6.000144500116459 7.999664396677989 0  -5.000067963027523 7.999610673306703 0  -3.999965600343421 7.9997700739479 0  -2.999984123971024 7.999957349198399 0  -2.000022178840653 8.000048660960243 0  -1.000025169183925 8.000059155600045 0  -2.092354920376218e-06 8.000062218795639 0  1.000015250602206 8.000071361066066 0  2.000008467416522 8.000033229855239 0  2.999964345322431 7.999968241231889 0  3.999949709586617 7.999807468396783 0  5.000050404692364 7.999626077105749 0  6.000142947774792 7.999676825538063 0  7.00014622421234 7.999767464135611 0  8.00008842864802 7.999879181592799 0  9 8 0  -9 10 0  -8.000254359010443 9.999778183917169 0  -7.000459653288741 9.999554509632858 0  -6.0005573388192 9.999327547500958 0  -5.000465827507306 9.999096891116224 0  -4.000303848524375 9.999610911961518 0  -3.000329775832285 10.00005290915407 0  -2.000263467886812 9.999977072207457 0  -1.000120789578402 9.999952732789437 0  -1.555574009713962e-05 9.999946792837028 0  1.000088847322598 9.999947225599135 0  2.000227688173644 9.999944368077466 0  3.000350232688517 10.00010308293959 0  4.0003354121142 9.999683494247089 0  5.000519508400378 9.999129948721077 0  6.000604001310934 9.999345266570982 0  7.000493503000429 9.999563765576095 0  8.000272045446051 9.999782170447212 0  9 10 0  -9 12 0  -8.000619279270936 11.99968881062545 0  -7.00120654976378 11.99936320392305 0  -6.001725634912082 11.9990059351749 0  -5.002131642102829 11.99859295708886 0  -4.002049217418795 11.99952910569416 0  -3.002123734576544 12.00045586788338 0  -2.001456354350853 12.0003437585842 0  -1.000715026666581 12.00028314879839 0  5.419029079354942e-05 12.00027142289728 0  1.000830901736173 12.00031051199542 0  2.001597925474514 12.00041174607788 0  3.002320956504256 12.00060349231756 0  4.002241433539361 11.99959763566688 0  5.002294235672641 11.99858343967551 0  6.001844058716858 11.99900133018423 0  7.001284137498017 11.99936065698396 0  8.000657719002021 11.9996875929194 0  9 12 0  -9 14 0  -8.001111365562652 13.99965728340447 0  -7.002224796679373 13.9992988522786 0  -6.003343863844386 13.99890760681998 0  -5.004475964347249 13.99846373088483 0  -4.004488058550387 13.99955647860291 0  -3.00449445600165 14.00066307568707 0  -2.002946671762521 14.00050477419428 0  -1.001421537797712 14.00041831812155 0  9.416823942999171e-05 14.0003930587301 0  1.001612990411255 14.00042554568057 0  2.0031465659873 14.00051754718684 0  3.004704119544978 14.00067406674947 0  4.004716425408049 13.99955763657836 0  5.004723069807169 13.99844813921022 0  6.003520982221588 13.9988923395619 0  7.002339524574726 13.99928752501325 0  8.001167823241998 13.99965135711567 0  9 14 0  -9 16 0  -8.001594005457781 15.99968873158285 0  -7.003218549038493 15.99936600637506 0  -6.004906820037908 15.99902017393987 0  -5.006697404571469 15.99863938001681 0  -4.006761455226547 15.99956995561461 0  -3.006701030419982 16.00049556471909 0  -2.004349459364049 16.00037936179636 0  -1.002091679875137 16.00030946908018 0  0.0001217396923651255 16.00028440339859 0  1.002337505135865 16.00030320504575 0  2.004602327118313 16.00036595878768 0  3.006965906150083 16.00047355621535 0  4.007033634910827 15.99952818626966 0  5.00697438013831 15.9985820936789 0  6.005111821105742 15.99897987756915 0  7.003353725374105 15.99934013494848 0  8.001661125094842 15.99967605120191 0  9 16 0  -9 18 0  -8.001953245850313 17.99976603715056 0  -7.003955156755366 17.99952571200156 0  -6.006056929798264 17.99927278487908 0  -5.008314792188347 17.99900128472745 0  -4.008411155730502 17.99957278610248 0  -3.008318309021837 18.00014353886148 0  -2.005381004244485 18.00006949025261 0  -1.002586218380412 18.00002212213789 0  0.000139863741324629 18.00000108012751 0  1.002867474857149 18.00000583970554 0  2.005666747384932 18.00003574569198 0  3.008611151304138 18.00008987250024 0  4.008709426545435 17.99950628048536 0  5.008615836043179 17.99892440508227 0  6.006280740433762 17.99921782128503 0  7.004103389533513 17.99949029379166 0  8.00202706578297 17.99974868220781 0  9 18 0  -9 20 0  -8.002116672308812 19.99986877194377 0  -7.004290032221788 19.99973585461526 0  -6.00657892623887 19.99959975388503 0  -5.009046515709904 19.99945935725703 0  -4.009156249035111 19.99957259118588 0  -3.009047909797527 19.99968498130243 0  -2.00584690105148 19.99965346821662 0  -1.002808041637804 19.99963006231141 0  0.0001517910792582435 19.99961514043991 0  1.003112715442483 19.99960845909789 0  2.006154814548482 19.99960917642385 0  3.009361117510588 19.99961579945801 0  4.009471658180032 19.99949542796728 0  5.009362592739881 19.99937620929958 0  6.006814504649649 19.99953962254822 0  7.004446372352876 19.9996968275961 0  8.00219462749504 19.9998495762765 0  8.999999999988811 19.9999999999934 0  -9 22 0  -8.002052282660779 21.99997824124921 0  -7.004160502427974 21.99995872492216 0  -6.006382342846037 21.99994390957789 0  -5.008778962801868 21.99993669024222 0  -4.008886265893833 21.99956807630441 0  -3.008779914010061 21.99919850343525 0  -2.005668683643746 21.99920520467048 0  -1.002715869436517 21.99920427224243 0  0.0001593511685248794 21.99919644487768 0  1.003035363668294 21.99918167391565 0  2.005990536517544 21.99915913842259 0  3.00910564392583 21.99912723103207 0  4.00921181077602 21.99949196123702 0  5.009103121965512 21.99985731235525 0  6.006624436859 21.99988624055755 0  7.004321396977342 21.99992116178949 0  8.002132573913139 21.99995972459315 0  9 22 0  -9 24 0  -8.001763049610005 24.00007874128015 0  -7.003574172326083 24.00016278964139 0  -6.00548278590917 24.00025767157219 0  -5.007540903986087 24.00036936846002 0  -4.007633377111843 23.99955944654921 0  -3.007542673144292 23.99874864346172 0  -2.004861151638115 23.99878729865164 0  -1.002315328793894 23.99880589513708 0  0.0001638506729683409 23.99880535543859 0  1.002643601477032 23.9987857660848 0  2.005191129651657 23.99874638144112 0  3.007875466948483 23.99868561839781 0  4.007964069940066 23.99949386742177 0  5.007868718346942 24.00030243423251 0  6.005727949203949 24.00020885658313 0  7.003737269580124 24.00013090645825 0  8.001844486641161 24.00006299825863 0  9 24 0  -9 26 0  -8.001280278918045 26.00015803516429 0  -7.002595418752251 26.00032353161408 0  -6.003981231766211 26.0005041715403 0  -5.005475235774873 26.00070809551192 0  -4.005543461428536 25.99954724139912 0  -3.005478647722816 25.99838569147747 0  -2.003515013326579 25.99844923184762 0  -1.001650113464755 25.99848366817944 0  0.000166244665619276 25.99849006508876 0  1.001983006226571 25.99846862899492 0  2.003849108640267 25.99841870894805 0  3.005814724003674 25.99833879464797 0  4.005876060330635 25.99949931276734 0  5.005803878022157 26.00065993149866 0  6.004227294636521 26.00046895891489 0  7.002759247307099 26.00030049003355 0  8.001362120527951 26.00014664420581 0  9 26 0  -9 28 0  -8.000656617044847 28.00020750951307 0  -7.001331332101182 28.00042371494884 0  -6.002042786078116 28.00065753527235 0  -5.002810433740418 28.00091834297157 0  -4.002847975037826 27.99953258478692 0  -3.002815739396691 27.99814644757327 0  -2.001778041611059 27.99822716681307 0  -1.000792590223605 27.9982731785805 0  0.0001672075732699715 27.99828567828986 0  1.001127288360591 27.9982649885097 0  2.002113577949732 27.99821055899184 0  3.003152639022 27.99812096571893 0  4.003180562157287 27.99950704508913 0  5.003138427161842 28.00089314272024 0  6.002288575254484 28.00063907211035 0  7.001495081527002 28.0004116136183 0  8.000738452670
[...]
<PointData  Vectors="f_42"> 
<DataArray  type="Float64"  Name="f_42"  NumberOfComponents="3" format="ascii">0.0000000000000000e+00 0.0000000000000000e+00 0.0000000000000000e+00  0.0000000000000000e+00 0.0000000000000000e+00 0.0000000000000000e+00  0.0000000000000000e+00 0.0000000000000000e+00 0.0000000000000000e+00  0.0000000000000000e+00 0.0000000000000000e+00 0.0000000000000000e+00  0.0000000000000000e+00 0.0000000000000000e+00 0.0000000000000000e+00  0.0000000000000000e+00 0.0000000000000000e+00 0.0000000000000000e+00  0.0000000000000000e+00 0.0000000000000000e+00 0.0000000000000000e+00  0.0000000000000000e+00 0.0000000000000000e+00 0.0000000000000000e+00  0.0000000000000000e+00 0.0000000000000000e+00 0.0000000000000000e+00  0.0000000000000000e+00 0.0000000000000000e+00 0.0000000000000000e+00  0.0000000000000000e+00 0.0000000000000000e+00 0.0000000000000000e+00  0.0000000000000000e+00 0.0000000000000000e+00 0.0000000000000000e+00  0.0000000000000000e+00 0.0000000000000000e+00 0.0000000000000000e+00  0.0000000000000000e+00 0.0000000000000000e+00 0.0000000000000000e+00  0.0000000000000000e+00 0.0000000000000000e+00 0.0000000000000000e+00  0.0000000000000000e+00 0.0000000000000000e+00 0.0000000000000000e+00  0.0000000000000000e+00 0.0000000000000000e+00 0.0000000000000000e+00  0.0000000000000000e+00 0.0000000000000000e+00 0.0000000000000000e+00  0.0000000000000000e+00 0.0000000000000000e+00 0.0000000000000000e+00  0.0000000000000000e+00 0.0000000000000000e+00 0.0000000000000000e+00  -8.0818679795338176e-06 -1.1974914328679242e-05 0.0000000000000000e+00  -1.6966367227547504e-05 -2.2497498188692964e-05 0.0000000000000000e+00  -2.8512086518366426e-05 -3.0391348223849916e-05 0.0000000000000000e+00  -4.6943752943519464e-05 -3.5149653246403258e-05 0.0000000000000000e+00  -2.8078789620275705e-05 -2.6198452419809084e-05 0.0000000000000000e+00  -8.6157663353949114e-06 -1.7835436827896305e-05 0.0000000000000000e+00  9.7284512247515755e-07 -1.0041998428854185e-05 0.0000000000000000e+00  2.7737436413729783e-06 -3.8868623454502040e-06 0.0000000000000000e+00  -2.8680696880867561e-07 -1.1871684224818379e-06 0.0000000000000000e+00  -3.6977743136597983e-06 -3.0465874196995666e-06 0.0000000000000000e+00  -3.0807071362650489e-06 -9.0164897300410080e-06 0.0000000000000000e+00  4.5131345666360966e-06 -1.6348905386154906e-05 0.0000000000000000e+00  2.0009744353329870e-05 -2.4214473175605691e-05 0.0000000000000000e+00  4.2400299611872097e-05 -2.7467345990871400e-05 0.0000000000000000e+00  2.5601370992874355e-05 -2.6240335284229755e-05 0.0000000000000000e+00  1.5220483967053412e-05 -2.0207792525938046e-05 0.0000000000000000e+00  7.2633417712121551e-06 -1.0929954726432768e-05 0.0000000000000000e+00  0.0000000000000000e+00 0.0000000000000000e+00 0.0000000000000000e+00  0.0000000000000000e+00 0.0000000000000000e+00 0.0000000000000000e+00  -1.2953014728759431e-05 -2.9758336312275621e-05 0.0000000000000000e+00  -2.3287884475521326e-05 -5.5509323153393462e-05 0.0000000000000000e+00  -2.9480276878492609e-05 -7.3324546837032624e-05 0.0000000000000000e+00  -3.1859091683404366e-05 -7.9450912263552399e-05 0.0000000000000000e+00  -4.5277850006576464e-06 -7.5337128580610176e-05 0.0000000000000000e+00  1.3918810497466828e-05 -5.1977906494290805e-05 0.0000000000000000e+00  1.8974860985026447e-05 -2.1573216252345480e-05 0.0000000000000000e+00  1.2409887575217329e-05 2.8710069141959526e-06 0.0000000000000000e+00  -4.9130561606742012e-07 1.2731884537011544e-05 0.0000000000000000e+00  -1.3675375059863848e-05 5.0608149206618459e-06 0.0000000000000000e+00  -2.1191103292255778e-05 -1.5695869398168676e-05 0.0000000000000000e+00  -1.7087157308670705e-05 -4.3805480999594787e-05 0.0000000000000000e+00  4.3426929258778248e-07 -7.2069334857798219e-05 0.0000000000000000e+00  2.6988468375000612e-05 -8.1542537534665203e-05 0.0000000000000000e+00  2.5530359017317826e-05 -7.1702259197577205e-05 0.0000000000000000e+00  2.0745755678943437e-05 -5.3395887437842328e-05 0.0000000000000000e+00  1.1751130574482192e-05 -2.8467467065517746e-05 0.0000000000000000e+00  0.0000000000000000e+00 0.0000000000000000e+00 0.0000000000000000e+00  0.0000000000000000e+00 0.0000000000000000e+00 0.0000000000000000e+00  -2.8295737317360235e-05 -6.3567203266119495e-05 0.0000000000000000e+00  -4.6179249123483554e-05 -1.2026055264723424e-04 0.0000000000000000e+00  -4.5702821274368740e-05 -1.6300968331542034e-04 0.0000000000000000e+00  -2.4581724217368490e-05 -1.8502687810095778e-04 0.0000000000000000e+00  2.8509184318122232e-05 -1.5048166499418783e-04 0.0000000000000000e+00  5.2808224578384602e-05 -7.8303712748699117e-05 0.0000000000000000e+00  4.3631228616012300e-05 -2.6487099886389114e-06 0.0000000000000000e+00  2.0288284241276796e-05 3.9430292328609501e-05 0.0000000000000000e+00  -3.3421985298364260e-06 4.7905997126921372e-05 0.0000000000000000e+00  -2.4545064253924812e-05 3.4275629676776804e-05 0.0000000000000000e+00  -4.0607984000148472e-05 -3.4225215869337937e-06 0.0000000000000000e+00  -4.6429197305707382e-05 -6.7092854795548648e-05 0.0000000000000000e+00  -3.3649945262686006e-05 -1.3310699554096951e-04 0.0000000000000000e+00  1.1680210321594222e-05 -1.6576878772823722e-04 0.0000000000000000e+00  3.8765302206693798e-05 -1.5102518573319965e-04 0.0000000000000000e+00  4.3110057094050196e-05 -1.1306828831293186e-04 0.0000000000000000e+00  2.7263369419396928e-05 -6.0157459302240603e-05 0.0000000000000000e+00  0.0000000000000000e+00 0.0000000000000000e+00 0.0000000000000000e+00  0.0000000000000000e+00 0.0000000000000000e+00 0.0000000000000000e+00  -8.5276004465880182e-05 -1.2485334215566826e-04 0.0000000000000000e+00  -1.4250352842625505e-04 -2.4076914844964542e-04 0.0000000000000000e+00  -1.4450011646245086e-04 -3.3560332201544807e-04 0.0000000000000000e+00  -6.7963027524216535e-05 -3.8932669328796735e-04 0.0000000000000000e+00  3.4399656579925507e-05 -2.2992605209684467e-04 0.0000000000000000e+00  1.5876028973896651e-05 -4.2650801602188917e-05 0.0000000000000000e+00  -2.2178840653298665e-05 4.8660960248490062e-05 0.0000000000000000e+00  -2.5169183925273912e-05 5.9155600049343457e-05 0.0000000000000000e+00  -2.0923549203762182e-06 6.2218795638499115e-05 0.0000000000000000e+00  1.5250602206978657e-05 7.1361066062280561e-05 0.0000000000000000e+00  8.4674165205476841e-06 3.3229855232265828e-05 0.0000000000000000e+00  -3.5654677569855848e-05 -3.1758768106819627e-05 0.0000000000000000e+00  -5.0290413383480754e-05 -1.9253160321635641e-04 0.0000000000000000e+00  5.0404692361092287e-05 -3.7392289425579301e-04 0.0000000000000000e+00  1.4294777479550785e-04 -3.2317446193521471e-04 0.0000000000000000e+00  1.4622421233960667e-04 -2.3253586439689284e-04 0.0000000000000000e+00  8.8428648014688595e-05 -1.2081840720242936e-04 0.0000000000000000e+00  0.0000000000000000e+00 0.0000000000000000e+00 0.0000000000000000e+00  0.0000000000000000e+00 0.0000000000000000e+00 0.0000000000000000e+00  -2.5435901044581718e-04 -2.2181608282855609e-04 0.0000000000000000e+00  -4.5965328873849267e-04 -4.4549036713915810e-04 0.0000000000000000e+00  -5.5733881919868165e-04 -6.7245249903881952e-04 0.0000000000000000e+00  -4.6582750730883669e-04 -9.0310888377808925e-04 0.0000000000000000e+00  -3.0384852437104849e-04 -3.8908803847631827e-04 0.0000000000000000e+00  -3.2977583228728307e-04 5.2909154068420427e-05 0.0000000000000000e+00  -2.6346788681391725e-04 -2.2927792541918641e-05 0.0000000000000000e+00  -1.2078957840236532e-04 -4.7267210563642850e-05 0.0000000000000000e+00  -1.5555740097139622e-05 -5.3207162986256660e-05 0.0000000000000000e+00  8.8847322600364118e-05 -5.2774400864594611e-05 0.0000000000000000e+00  2.2768817364511083e-04 -5.5631922543047004e-05 0.0000000000000000e+00  3.5023268851831107e-04 1.0308293958683005e-04 0.0000000000000000e+00  3.3541211420556871e-04 -3.1650575291328827e-04 0.0000000000000000e+00  5.1950840038193454e-04 -8.7005127892467876e-04 0.0000000000000000e+00  6.0400131093868556e-04 -6.5473342901765008e-04 0.0000000000000000e+00  4.9350300042694413e-04 -4.3623442390410493e-04 0.0000000000000000e+00  2.7204544604623527e-04 -2.1782955278916999e-04 0.0000000000000000e+00  0.0000000000000000e+00 0.0000000000000000e+00 0.0000000000000000e+00  0.0000000000000000e+00 0.0000000000000000e+00 0.0000000000000000e+00  -6.1927927093426030e-04 -3.1118937454342071e-04 0.0000000000000000e+00  -1.2065497637795306e-03 -6.3679607695140078e-04 0.0000000000000000e+00  -1.7256349120801674e-03 -9.9406482508727196e-04 0.0000000000000000e+00  -2.1316421028291675e-03 -1.4070429111324859e-03 0.0000000000000000e+00  -2.0492174187962341e-03 -4.7089430583908547e-04 0.0000000000000000e+00  -2.1237345765443148e-03 4.5586788338079635e-04 0.0000000000000000e+00  -1.4563543508530365e-03 3.4375858420538844e-04 0.0000000000000000e+00  -7.1502666658012921e-04 2.8314879838786346e-04 0.0000000000000000e+00  5.4190290793549418e-05 2.7142289729095693e-04 0.0000000000000000e+00  8.3090173617239799e-04 3.1051199542311353e-04 0.0000000000000000e+00  1.5979254745119480e-03 4.1174607787874907e-04 0.0000000000000000e+00  2.3209565042552655e-03 6.0349231755152052e-04 0.0000000000000000e+00  2.2414335393625617e-03 -4.0236433310783163e-04 0.0000000000000000e+00  2.2942356726351008e-03 -1.4165603244843099e-03 0.0000000000000000e+00  1.8440587168582555e-03 -9.9866981576522381e-04 0.0000000000000000e+00  1.2841374980231946e-03 -6.3934301603981109e-04 0.0000000000000000e+00  6.5771900202282892e-04 -3.1240708059749738e-04 0.0000000000000000e+00  0.0000000000000000e+00 0.0000000000000000e+00 0.0000000000000000e+00  0.0000000000000000e+00 0.0000000000000000e+00 0.0000000000000000e+00  -1.1113655626593037e-03 -3.4271659553075651e-04 0.0000000000000000e+00  -2.2247966793733113e-03 -7.0114772140105613e-04 0.0000000000000000e+00  -3.3438638443911532e-03 -1.0923931800226247e-03 0.0000000000000000e+00  -4.4759643472529849e-03 -1.5362691151738564e-03 0.0000000000000000e+00  -4.4880585503882893e-03 -4.4352139708257179e-04 0.0000000000000000e+00  -4.4944560016479665e-03 6.6307568706860682e-04 0.0000000000000000e+00  -2.9466717625203560e-03 5.0477419426768304e-04 0.0000000000000000e+00  -1.4215377977105999e-03 4.1831812154321943e-04 0.0000000000000000e+00  9.4168239429991713e-05 3.9305873008828074e-04 0.0000000000000000e+00  1.6129904112537530e-03 4.2554568057809897e-04 0.0000000000000000e+00  3.1465659873012803e-03 5.1754718683749159e-04 0.0000000000000000e+00  4.7041195449788065e-03 6.7406674946633477e-04 0.0000000000000000e+00  4.7164254080439717e-03 -4.4236342164250317e-04 0.0000000000000000e+00  4.7230698071706670e-03 -1.5518607897770579e-03 0.0000000000000000e+00  3.5209822215847525e-03 -1.1076604380941899e-03 0.0000000000000000e+00  2.3395245747266295e-03 -7.1247498675255038e-04 0.0000000000000000e+00  1.1678232419965893e-03 -3.4864288432962567e-04 0.0000000000000000e+00  0.0000000000000000e+00 0.0000000000000000e+00 0.0000000000000000e+00  0.0000000000000000e+00 0.0000000000000000e+00 0.0000000000000000e+00  -1.5940054577763816e-03 -3.1126841716438069e-04 0.0000000000000000e+00  -3.2185490384935103e-03 -6.3399362493533732e-04 0.0000000000000000e+00  -4.9068200379048903e-03 -9.7982606012202459e-04 0.0000000000000000e+00  -6.6974045714693984e-03 -1.3606199831993312e-03 0.0000000000000000e+00  -6.7614552265431015e-03 -4.3004438538627078e-04 0.0000000000000000e+00  -6.7010304199822419e-03 4.9556471908930393e-04 0.0000000000000000e+00  -4.3494593640479575e-03 3.7936179636929683e-04 0.0000000000000000e+00  -2.0916798751373492e-03 3.0946908017734473e-04 0.0000000000000000e+00  1.2173969236512547e-04 2.8440339859594441e-04 0.0000000000000000e+00  2.3375051358650754e-03 3.0320504575209023e-04 0.0000000000000000e+00  4.6023271183108436e-03 3.6595878768214200e-04 0.0000000000000000e+00  6.9659061500864155e-03 4.7355621533491801e-04 0.0000000000000000e+00  7.0336349108253053e-03 -4.7181373032633680e-04 0.0000000000000000e+00  6.9743801383151610e-03 -1.4179063211079933e-03 0.0000000000000000e+00  5.1118211057473110e-03 -1.0201224308528732e-03 0.0000000000000000e+00  3.3537253741052426e-03 -6.5986505151876054e-04 0.0000000000000000e+00  1.6611250948454803e-03 -3.2394879808703218e-04 0.0000000000000000e+00  0.0000000000000000e+00 0.0000000000000000e+00 0.0000000000000000e+00  0.0000000000000000e+00 0.0000000000000000e+00 0.0000000000000000e+00  -1.9532458502979585e-03 -2.3396284941349684e-04 0.0000000000000000e+00  -3.9551567553644069e-03 -4.7428799842892487e-04 0.0000000000000000e+00  -6.0569297982622930e-03 -7.2721512092546042e-04 0.0000000000000000e+00  -8.3147921883511382e-03 -9.9871527255506799e-04 0.0000000000000000e+00  -8.4111557305003581e-03 -4.2721389751984584e-04 0.0000000000000000e+00  -8.3183090218380169e-03 1.4353886149150638e-04 0.0000000000000000e+00  -5.3810042444845342e-03 6.9490252607547564e-05 0.0000000000000000e+00  -2.5862183804142114e-03 2.2122137892724182e-05 0.0000000000000000e+00  1.3986374132462896e-04 1.0801274983456596e-06 0.0000000000000000e+00  2.8674748571491139e-03 5.8397055432139720e-06 0.0000000000000000e+00  5.6667473849284179e-03 3.5745691977177751e-05 0.0000000000000000e+00  8.6111513041377506e-03 8.9872500221224478e-05 0.0000000000000000e+00  8.7094265454347383e-03 -4.9371951464610079e-04 0.0000000000000000e+00  8.6158360431802545e-03 -1.0755949177424504e-03 0.0000000000000000e+00  6.2807404337596783e-03 -7.8217871498751550e-04 0.0000000000000000e+00  4.1033895335181305e-03 -5.0970620833065521e-04 0.0000000000000000e+00  2.0270657829666991e-03 -2.5131779218910249e-04 0.0000000000000000e+00  0.0000000000000000e+00 0.0000000000000000e+00 0.0000000000000000e+00  0.0000000000000000e+00 0.0000000000000000e+00 0.0000000000000000e+00  -2.1166723088043788e-03 -1.3122805623094652e-04 0.0000000000000000e+00  -4.2900322217862734e-03 -2.6414538474001787e-04 0.0000000000000000e+00  -6.5789262388728951e-03 -4.0024611493805039e-04 0.0000000000000000e+00  -9.0465157099028290e-03 -5.4064274295981187e-04 0.0000000000000000e+00  -9.1562490351092957e-03 -4.2740881411737166e-04 0.0000000000000000e+00  -9.0479097975280729e-03 -3.1501869757479992e-04 0.0000000000000000e+00  -5.8469010514788696e-03 -3.4653178336866325e-04 0.0000000000000000e+00  -2.8080416378051475e-03 -3.6993768858908270e-04 0.0000000000000000e+00  1.5179107925824352e-04 -3.8485956007816428e-04 0.0000000000000000e+00  3.1127154424833393e-03 -3.9154090212182164e-04 0.0000000000000000e+00  6.1548145484857011e-03 -3.9082357616744762e-04 0.0000000000000000e+00  9.3611175105887887e-03 -3.8420054200609535e-04 0.0000000000000000e+00  9.4716581800329217e-03 -5.0457203272988109e-04 0.0000000000000000e+00  9.3625927398805087e-03 -6.2379070041370353e-04 0.0000000000000000e+00  6.8145046496471138e-03 -4.6037745178451311e-04 0.0000000000000000e+00  4.4463723528749988e-03 -3.0317240390182522e-04 0.0000000000000000e+00  2.1946274950206271e-03 -1.5042372350392187e-04 0.0000000000000000e+00  -1.1194244194307298e-11 -6.5946186798380934e-12 0.0000000000000000e+00  0.0000000000000000e+00 0.0000000000000000e+00 0.0000000000000000e+00  -2.0522826607757569e-03 -2.1758750797250550e-05 0.0000000000000000e+00  -4.1605024279773766e-03 -4.1275077851753236e-05 0.0000000000000000e+00  -6.3823428460367806e-03 -5.6090422095264448e-05 0.0000000000000000e+00  -8.7789628018661026e-03 -6.3309757776731365e-05 0.0000000000000000e+00  -8.8862658938336659e-03 -4.3192369556584431e-04 0.0000000000000000e+00  -8.7799140100628531e-03 -8.0149656474207132e-04 0.0000000000000000e+00  -5.6686836437436728e-03 -7.9479532949550428e-04 0.0000000000000000e+00  -2.7158694365176637e-03 -7.9572775756177956e-04 0.0000000000000000e+00  1.5935116852487939e-04 -8.0355512234101423e-04 0.0000000000000000e+00  3.0353636682940526e-03 -8.1832608436264130e-04 0.0000000000000000e+00  5.9905365175435248e-03 -8.4086157743028765e-04 0.0000000000000000e+00  9.1056439258296092e-03 -8.7276896793900380e-04 0.0000000000000000e+00  9.2118107760240306e-03 -5.0803876296009066e-04 0.0000000000000000e+00  9.1031219655126408e-03 -1.4268764476062679e-04 0.0000000000000000e+00  6.6244368589990828e-03 -1.1375944244330234e-04 0.0000000000000000e+00  4.3213969773377124e-03 -7.8838210495272179e-05 0.0000000000000000e+00  2.1325739131336174e-03 -4.0275406840608338e-05 0.0000000000000000e+00  0.0000000000000000e+00 0.0000000000000000e+00 0.0000000000000000e+00  0.0000000000000000e+00 0.0000000000000000e+00 0.0000000000000000e+00  -1.7630496099971256e-03 7.8741280148570937e-05 0.0000000000000000e+00  -3.5741723260846337e-03 1.6278964139581427e-04 0.0000000000000000e+00  -5.4827859091762694e-03 2.5767157220503277e-04 0.0000000000000000e+00  -7.5409039860806285e-03 3.6936846001509819e-04 0.0000000000000000e+00  -7.6333771118442155e-03 -4.4055345078174922e-04 0.0000000000000000e+00  -7.5426731442906157e-03 -1.2513565382849493e-03 0.0000000000000000e+00  -4.8611516381111075e-03 -1.2127013483554346e-03 0.0000000000000000e+00  -2.3153287938938454e-03 -1.1941048629222296e-03 0.0000000000000000e+00  1.6385067296834094e-04 -1.1946445614069330e-03 0.0000000000000000e+00  2.6436014770311019e-03 -1.2142339152011986e-03 0.0000000000000000e+00  5.1911296516594235e-03 -1.2536185588556011e-03 0.0000000000000000e+00  7.8754669484819434e-03 -1.3143816021906475e-03 0.0000000000000000e+00  7.9640699400613576e-03 -5.0613257823742795e-04 0.0000000000000000e+00  7.8687183469400880e-03 3.0243423249986726e-04 0.0000000000000000e+00  5.7279492039514750e-03 2.0885658315032417e-04 0.0000000000000000e+00  3.7372695801235088e-03 1.3090645824343104e-04 0.0000000000000000e+00  1.8444866411638922e-03 6.2998258651949260e-05 0.0000000000000000e+00  0.0000000000000000e+00 0.0000000000000000e+00 0.0000000000000000e+00  0.0000000000000000e+00 0.0000000000000000e+00 0.0000000000000000e+00  -1.2802789180473646e-03 1.5803516428836105e-04 0.0000000000000000e+00  -2.5954187522541205e-03 3.2353161409336828e-04 0.0000000000000000e+00  -3.9812317662111241e-03 5.0417154028175074e-04 0.0000000000000000e+00  -5.4752357748693407e-03 7.0809551192065610e-04 0.0000000000000000e+00  -5.5434614285364706e-03 -4.5275860086592087e-04 0.0000000000000000e+00  -5.4786477228126341e-03 -1.6143085225297021e-03 0.0000000000000000e+00  -3.5150133265796891e-03 -1.5507681523799976e-03 0.0000000000000000e+00  -1.6501134647543745e-03 -1.5163318205447384e-03 0.0000000000000000e+00  1.6624466561927599e-04 -1.5099349112315111e-03 0.0000000000000000e+00  1.9830062265711896e-03 -1.5313710050532659e-03 0.0000000000000000e+00  3.8491086402663165e-03 -1.5812910519790743e-03 0.0000000000000000e+00  5.8147240036726224e-03 -1.6612053520315840e-03 0.0000000000000000e+00  5.8760603306343990e-03 -5.0068723265894483e-04 0.0000000000000000e+00  5.8038780221540374e-03 6.5993149866922212e-04 0.0000000000000000e+00  4.2272946365229510e-03 4.6895891487995473e-04 0.0000000000000000e+00  2.7592473070986237e-03 3.0049003355572931e-04 0.0000000000000000e+00  1.3621205279503502e-03 1.4664420582724167e-04 0.0000000000000000e+00  0.0000000000000000e+00 0.0000000000000000e+00 0.0000000000000000e+00  0.0000000000000000e+00 0.0000000000000000e+00 0.0000000000000000e+00  -6.5661704484354627e-04 2.0750951308146158e-04 0.0000000000000000e+00  -1.3313321011818526e-03 4.2371494884046562e-04 0.0000000000000000e+00  -2.0427860781183620e-03 6.5753527234868473e-04 0.0000000000000000e+00  -2.8104337404186164e-03 9.1834297156563323e-04 0.0000000000000000e+00  -2.8479750378303109e-03 -4.6741521309328975e-04 0.0000000000000000e+00  -2.8157393966898475e-03 -1.8535524267493150e-03 0.0000000000000000e+00  -1.7780416110595863e-03 -1.7728331869466610e-03 0.0000000000000000e+00  -7.9259022360504108e-04 -1.7268214195100215e-03 0.0000000000000000e+00  1.6720757326997145e-04 -1.7143217101562593e-03 0.0000000000000000e+00  1.1272883605923517e-03 -1.7350114902818137e-03 0.0000000000000000e+00  2.1135779497330827e-03 -1.7894410081689216e-03 0.0000000000000000e+00  3.1526390220046872e-03 -1.8790342810778890e-03 0.0000000000000000e+00  3.1805621572847526e-03 -4.9295491087807358e-04 0.0000000000000000e+00  