<?xml version="1.0"?>
<VTKFile type="UnstructuredGrid"  version="0.1"  >
<UnstructuredGrid>
<Piece  NumberOfPoints="589" NumberOfCells="1080">
<Points>
<DataArray  type="Float64"  NumberOfComponents="3"  format="ascii">-9 0 0  -8 0 0  -7 0 0  -6 0 0  -5 0 0  -4 0 0  -3 0 0  -2 0 0  -1 0 0  0 0 0  1 0 0  2 0 0  3 0 0  4 0 0  5 0 0  6 0 0  7 0 0  8 0 0  9 0 0  -9 2 0  -7.999993853698705 2.000008498337798 0  -6.999987160340683 2.000015985252926 0  -5.999978633937283 2.000021641977043 0  -4.999965332648036 2.000025117011015 0  -3.999978789280951 2.000018664731401 0  -2.999992656756725 2.00001272754478 0  -1.999999563433469 2.000007229445314 0  -1.00000100154632 2.000002864128378 0  1.006234704794962e-06 2.000000876078353 0  1.000003363567204 2.000001994761788 0  2.000003103434281 2.000005867193714 0  2.999998277519777 2.000010555025423 0  3.999988400749436 2.000015326433579 0  4.999974370247554 2.000016466445168 0  5.999984880779531 2.00001617957795 0  6.999991136939115 2.000012636025406 0  7.99999579492064 2.000006881680689 0  9 2 0  -9.000000000009988 4 0  -7.999989895505403 4.000021042768228 0  -6.999981652854004 4.000039291575476 0  -5.999976367359682 4.00005201087935 0  -4.999973837831531 4.000056597101846 0  -3.999993077647451 4.000053468854303 0  -3.000006070551896 4.000037004403033 0  -2.000009717066607 4.000015649724647 0  -1.000005258245914 3.999998437817005 0  3.631268375025426e-06 3.999991297646077 0  1.000012787486386 3.999996116558259 0  2.000018179559191 4.000009731327072 0  3.000015808409629 4.000028097568233 0  4.000004494565413 4.000046130468848 0  4.999987134525598 4.000050738475768 0  5.999986779001827 4.000045386088384 0  6.999988666534049 4.000034115556452 0  7.999993401335305 4.000018273061924 0  9 4 0  -9 6 0  -7.99997848936613 6.000044764939239 0  -6.999964316683877 6.000084717652329 0  -5.999963076968083 6.000114913751235 0  -4.999976352555953 6.000130639253695 0  -4.000013380868411 6.000106119157592 0  -3.000030255887237 6.000055441657848 0  -2.000023650837299 6.000002440328232 0  -1.000007275022103 5.999973094949762 0  9.097464345184131e-06 5.999967007348189 0  1.000023616733625 5.999975927243624 0  2.0000345684051 6.000000911622456 0  3.000038683081415 6.000043113033033 0  4.000030349738219 6.000086479121455 0  5.000000010142651 6.00010690737536 0  5.999979704939717 6.000098266648774 0  6.999974806612187 6.000073884586063 0  7.99998355166662 6.000039388260316 0  9 6 0  -9 8 0  -7.999937725863252 8.000087744852099 0  -6.999895245402207 8.000169179409689 0  -5.999891723693567 8.000235707982604 0  -4.999943480504959 8.000273146048315 0  -4.000015068655584 8.000160954908065 0  -3.00000109459348 8.000029303297099 0  -1.999973608806213 7.99996574187388 0  -0.9999711032468998 7.999959267522163 0  1.28351730117716e-05 7.99995752481634 0  1.000000467130505 7.999951241537451 0  2.000004612251705 7.999976299300253 0  3.000034297681704 8.00001911344701 0  4.000044017939377 8.000126381107982 0  4.999975943541665 8.000247442867824 0  5.999910997037195 8.000214124471105 0  6.999906366152137 8.000154119636965 0  7.999942883005248 8.000080077886599 0  9 8 0  -9 10 0  -7.999817743810734 10.00015600115157 0  -6.999670292655524 10.0003133195561 0  -5.999599212874889 10.00047295408802 0  -4.999662284284265 10.00063520149277 0  -3.999776448649431 10.00027158689164 0  -2.999756601097142 9.99995904365654 0  -1.999802005573414 10.00001510237352 0  -0.9999019478218993 10.00003316753658 0  2.514879678445204e-05 10.00003755756222 0  0.9999533588662902 10.0000369933537 0  1.999858612764329 10.00003796591021 0  2.999774140673031 9.9999292333864 0  3.999783145933401 10.00021069705119 0  4.999659264793877 10.00058190272644 0  5.999600939574202 10.0004367943228 0  6.999673280499665 10.00029053909538 0  7.999819778736277 10.00014493517643 0  9 10 0  -9 12 0  -7.999558337519329 12.00021906395726 0  -6.999139521485802 12.00044832279254 0  -5.998769453873654 12.00069997105745 0  -4.99848008078164 12.000991050351 0  -3.998539382435877 12.00032589348157 0  -2.998485853723918 11.99966675028115 0  -1.998939541066358 11.99974957240751 0  -0.9994478957443935 11.99979635629908 0  2.209227743264466e-05 11.99980899136372 0  0.9994848399817325 11.9997863741602 0  1.998951994941242 11.99972101083685 0  2.99844629654776 11.99959387031336 0  3.998497566127403 12.00026674382629 0  4.99846283326453 12.00094458580467 0  5.998767796862553 12.00066420127205 0  6.999143356261754 12.00042444530936 0  7.999561655053621 12.00020717431785 0  9 12 0  -9 14 0  -7.999207122302804 14.00024143290026 0  -6.998413079288714 14.00049391661127 0  -5.997615758362332 14.00076948013274 0  -4.996810207938712 14.00108205956093 0  -3.996803420457867 14.00030115592198 0  -2.996798185269224 13.99951010209799 0  -1.997859203488107 13.99962835212934 0  -0.9989075879407205 13.99969627886773 0  4.804484679242113e-05 13.99972155747695 0  0.998999233951573 13.99970688660508 0  1.997937863747831 13.99965137339652 0  2.996857236246026 13.99955189888928 0  3.996845583969068 14.00029023244515 0  4.996842124084688 14.00102352175511 0  5.997651350661142 14.00072939325267 0  6.998441938639947 14.00046858935563 0  7.999223014824763 14.00022912328318 0  9 14 0  -9 16 0  -7.998859988541188 16.0002196556893 0  -6.997698794513552 16.0004473115679 0  -5.996493446420684 16.00069110560582 0  -4.995217065877918 16.0009592792038 0  -3.995173557928817 16.00028695684073 0  -2.995215142516396 15.99961810762487 0  -1.996830873840032 15.99970887642561 0  -0.9983840217240945 15.99976715538886 0  9.174399038297738e-05 15.99979424463769 0  0.9985644700140618 15.99979108297661 0  1.997002092851547 15.99975789208274 0  2.995370455820649 15.99969433449739 0  3.995321710509911 16.0003071546046 0  4.995362973399052 16.00092040913333 0  5.99660791200535 16.00066148276522 0  6.997777637291951 16.00042751951758 0  7.998900187918445 16.0002097726307 0  9 16 0  -9 18 0  -7.998596970541105 18.00016589237236 0  -6.997160028351749 18.00033621236896 0  -5.995653505711212 18.00051530584854 0  -4.994038126294372 18.00070729494033 0  -3.993971385221212 18.00028215066363 0  -2.994035289987004 17.99985748410384 0  -1.996054740764547 17.99991972832892 0  -0.9979770069382086 17.99996316845813 0  0.0001475193465834274 17.99998830689578 0  0.9982708342683501 17.99999575723822 0  1.996344989131169 17.99998622079483 0  2.994319798825375 17.99996058135632 0  3.994251446671635 18.00032064050709 0  4.994315914382328 18.00067946354856 0  5.99586357586218 18.00049384105886 0  6.997300943331033 18.00032165830374 0  7.99866769867462 18.00015855048602 0  9 18 0  -9 20 0  -7.998469034124009 20.00009440812363 0  -6.996898463431502 20.000190031076 0  -5.995247155549052 20.00028795172872 0  -4.993470898809976 20.00038897002712 0  -3.993394380407322 20.00028113876816 0  -2.993469081811752 20.00017365074088 0  -1.99566942246205 20.00020606349291 0  -0.9977581691805028 20.00023266147366 0  0.00020805995173353 20.00025339311998 0  0.9981746704298754 20.00026863936926 0  1.99608712272228 20.00027920046422 0  2.993888960757234 20.00028633249845 0  3.993813323703009 20.00032813145465 0  4.993887696780178 20.00036888713954 0  5.995558627523002 20.00027247129037 0  6.997105605997239 20.00017951147118 0  7.998572460168843 20.00008908936639 0  8.999999999973994 20.00000000000235 0  -9 22 0  -7.998498994609603 22.00001805191919 0  -6.996958740442213 22.00003465262975 0  -5.995338754523987 22.00004820253358 0  -4.993596072942583 22.00005680165292 0  -3.993521236713538 22.00028379393327 0  -2.993595100334821 22.00051096343943 0  -1.995732558160701 22.00051574415954 0  -0.9977602271333753 22.00052571316945 0  0.0002670475881036528 22.00054051274722 0  0.9982960716499278 22.00056034471485 0  1.99627371823535 22.00058596036629 0  2.994145346158385 22.00061867131197 0  3.99407325176035 22.00033113859212 0  4.994146220483213 22.00004269138582 0  5.99574777020245 22.00003727242421 0  6.997229741321692 22.00002720371593 0  7.998633998044147 22.00001427967959 0  9 22 0  -9 24 0  -7.998685422811576 23.99994749833681 0  -6.99733682711974 23.99989147226313 0  -5.995919280546876 23.99982824510593 0  -4.994395979771372 23.99975384168554 0  -3.994331838992101 24.0002887595655 0  -2.994395897742683 24.00082363312814 0  -1.996236843320822 24.00080458881014 0  -0.9979829845307142 24.00079936291084 0  0.0003190757782016204 24.00080742073122 0  0.9986239858040268 24.00082882547363 0  1.99688646870639 24.00086423486819 0  2.995060148982258 24.00091490601084 0  3.995000029066659 24.00032990225165 0  4.995062413765227 23.99974403862786 0  5.996413566511174 23.99982066894779 0  6.997663748706795 23.99988631421989 0  7.998848107989809 23.99994488718668 0  9 24 0  -9 26 0  -7.999007336357871 25.99989105053158 0  -6.997989550134124 25.9997770973573 0  -5.996920931837415 25.99965298453708 0  -4.995774509280783 25.99951326004878 0  -3.995727743152167 26.00029486353978 0  -2.995775158127692 26.00107627711802 0  -1.997122243100257 26.00103797885598 0  -0.998399409453348 26.00101969483284 0  0.0003597881242271386 26.00102075385783 0  0.9991226421725309 26.00104109310366 0  1.997856524381793 26.00108125630102 0  2.996528119758377 26.00114239634345 0  3.996486224654979 26.00032495786869 0  4.996531313038451 25.99950680218906 0  5.997481570745977 25.99964801854287 0  6.998360030388438 25.99977372708064 0  7.999191598247354 25.99988934720487 0  9 26 0  -9 28 0  -7.999429064474107 27.99985462767513 0  -6.998844363294681 27.99970336351617 0  -5.99823186421482 27.99954016505035 0  -4.997576876077921 27.99935869272542 0  -3.997551784227694 28.00030125626207 0  -2.997577832302452 28.00124354453062 0  -1.998289173934106 28.00119112534463 0  -0.9989621281366654 28.001162463432 0  0.0003859645716580941 28.00115676942269 0  0.9997382080585134 28.00117385962004 0  1.999077787496184 28.00121415551938 0  2.998387607327962 28.00127868431288 0  3.998368060851387 28.00031714988481 0  4.998391519545206 27.99935509316251 0  5.998835013756771 27.9995374272082 0  6.999242772032773 27.9997015189
[...]
<PointData  Vectors="f_42"> 
<DataArray  type="Float64"  Name="f_42"  NumberOfComponents="3" format="ascii">0.0000000000000000e+00 0.0000000000000000e+00 0.0000000000000000e+00  0.0000000000000000e+00 0.0000000000000000e+00 0.0000000000000000e+00  0.0000000000000000e+00 0.0000000000000000e+00 0.0000000000000000e+00  0.0000000000000000e+00 0.0000000000000000e+00 0.0000000000000000e+00  0.0000000000000000e+00 0.0000000000000000e+00 0.0000000000000000e+00  0.0000000000000000e+00 0.0000000000000000e+00 0.0000000000000000e+00  0.0000000000000000e+00 0.0000000000000000e+00 0.0000000000000000e+00  0.0000000000000000e+00 0.0000000000000000e+00 0.0000000000000000e+00  0.0000000000000000e+00 0.0000000000000000e+00 0.0000000000000000e+00  0.0000000000000000e+00 0.0000000000000000e+00 0.0000000000000000e+00  0.0000000000000000e+00 0.0000000000000000e+00 0.0000000000000000e+00  0.0000000000000000e+00 0.0000000000000000e+00 0.0000000000000000e+00  0.0000000000000000e+00 0.0000000000000000e+00 0.0000000000000000e+00  0.0000000000000000e+00 0.0000000000000000e+00 0.0000000000000000e+00  0.0000000000000000e+00 0.0000000000000000e+00 0.0000000000000000e+00  0.0000000000000000e+00 0.0000000000000000e+00 0.0000000000000000e+00  0.0000000000000000e+00 0.0000000000000000e+00 0.0000000000000000e+00  0.0000000000000000e+00 0.0000000000000000e+00 0.0000000000000000e+00  0.0000000000000000e+00 0.0000000000000000e+00 0.0000000000000000e+00  0.0000000000000000e+00 0.0000000000000000e+00 0.0000000000000000e+00  6.1463012879791794e-06 8.4983377995742596e-06 0.0000000000000000e+00  1.2839659325674498e-05 1.5985252926669138e-05 0.0000000000000000e+00  2.1366062718518420e-05 2.1641977043575679e-05 0.0000000000000000e+00  3.4667351954058452e-05 2.5117011013070224e-05 0.0000000000000000e+00  2.1210719050400082e-05 1.8664731401794123e-05 0.0000000000000000e+00  7.3432432713236320e-06 1.2727544781148785e-05 0.0000000000000000e+00  4.3656653256894654e-07 7.2294453122973355e-06 0.0000000000000000e+00  -1.0015463208087587e-06 2.8641283802315134e-06 0.0000000000000000e+00  1.0062347047949623e-06 8.7607835174097372e-07 0.0000000000000000e+00  3.3635672049239371e-06 1.9947617897385476e-06 0.0000000000000000e+00  3.1034342816389826e-06 5.8671937179169270e-06 0.0000000000000000e+00  -1.7224802212327583e-06 1.0555025421371920e-05 0.0000000000000000e+00  -1.1599250561765336e-05 1.5326433579159584e-05 0.0000000000000000e+00  -2.5629752447523768e-05 1.6466445167865679e-05 0.0000000000000000e+00  -1.5119220471006422e-05 1.6179577950381880e-05 0.0000000000000000e+00  -8.8630608911386462e-06 1.2636025404678882e-05 0.0000000000000000e+00  -4.2050793726463724e-06 6.8816806892879965e-06 0.0000000000000000e+00  0.0000000000000000e+00 0.0000000000000000e+00 0.0000000000000000e+00  -9.9873901165806172e-12 0.0000000000000000e+00 0.0000000000000000e+00  1.0104494603397781e-05 2.1042768226707684e-05 0.0000000000000000e+00  1.8347146002022283e-05 3.9291575474048365e-05 0.0000000000000000e+00  2.3632640316640117e-05 5.2010879349112533e-05 0.0000000000000000e+00  2.6162168463393302e-05 5.6597101848506869e-05 0.0000000000000000e+00  6.9223525488959620e-06 5.3468854304107738e-05 0.0000000000000000e+00  -6.0705518978213740e-06 3.7004403035039804e-05 0.0000000000000000e+00  -9.7170666076519725e-06 1.5649724644330895e-05 0.0000000000000000e+00  -5.2582459133975328e-06 -1.5621829956630312e-06 0.0000000000000000e+00  3.6312683750254263e-06 -8.7023539217298213e-06 0.0000000000000000e+00  1.2787486386201805e-05 -3.8834417332853430e-06 0.0000000000000000e+00  1.8179559190377379e-05 9.7313270714232818e-06 0.0000000000000000e+00  1.5808409630325094e-05 2.8097568231709230e-05 0.0000000000000000e+00  4.4945654114761140e-06 4.6130468849312984e-05 0.0000000000000000e+00  -1.2865474408595627e-05 5.0738475768674797e-05 0.0000000000000000e+00  -1.3220998180248768e-05 4.5386088386516939e-05 0.0000000000000000e+00  -1.1333465946004578e-05 3.4115556452607355e-05 0.0000000000000000e+00  -6.5986646857473809e-06 1.8273061923862572e-05 0.0000000000000000e+00  0.0000000000000000e+00 0.0000000000000000e+00 0.0000000000000000e+00  0.0000000000000000e+00 0.0000000000000000e+00 0.0000000000000000e+00  2.1510633853047830e-05 4.4764939232884162e-05 0.0000000000000000e+00  3.5683316125379668e-05 8.4717652331670393e-05 0.0000000000000000e+00  3.6923031907105070e-05 1.1491375123868597e-04 0.0000000000000000e+00  2.3647444048029591e-05 1.3063925370038749e-04 0.0000000000000000e+00  -1.3380868411606250e-05 1.0611915759684395e-04 0.0000000000000000e+00  -3.0255887235975052e-05 5.5441657849945179e-05 0.0000000000000000e+00  -2.3650837299214865e-05 2.4403282241011972e-06 0.0000000000000000e+00  -7.2750221034442595e-06 -2.6905050236669870e-05 0.0000000000000000e+00  9.0974643451841309e-06 -3.2992651814190660e-05 0.0000000000000000e+00  2.3616733624698610e-05 -2.4072756372708877e-05 0.0000000000000000e+00  3.4568405101873120e-05 9.1162245218566921e-07 0.0000000000000000e+00  3.8683081413761389e-05 4.3113033035661892e-05 0.0000000000000000e+00  3.0349738215149800e-05 8.6479121457012115e-05 0.0000000000000000e+00  1.0142655467389345e-08 1.0690737536164366e-04 0.0000000000000000e+00  -2.0295060289989802e-05 9.8266648775208114e-05 0.0000000000000000e+00  -2.5193387816745102e-05 7.3884586062582076e-05 0.0000000000000000e+00  -1.6448333378927196e-05 3.9388260314805976e-05 0.0000000000000000e+00  0.0000000000000000e+00 0.0000000000000000e+00 0.0000000000000000e+00  0.0000000000000000e+00 0.0000000000000000e+00 0.0000000000000000e+00  6.2274136735603628e-05 8.7744852098668675e-05 0.0000000000000000e+00  1.0475459779116332e-04 1.6917940968773682e-04 0.0000000000000000e+00  1.0827630643367430e-04 2.3570798260362375e-04 0.0000000000000000e+00  5.6519495040911975e-05 2.7314604832359934e-04 0.0000000000000000e+00  -1.5068655583991206e-05 1.6095490807190594e-04 0.0000000000000000e+00  -1.0945934809439233e-06 2.9303297096798325e-05 0.0000000000000000e+00  2.6391193786779123e-05 -3.4258126118530878e-05 0.0000000000000000e+00  2.8896753099547041e-05 -4.0732477837107910e-05 0.0000000000000000e+00  1.2835173011771596e-05 -4.2475183664793473e-05 0.0000000000000000e+00  4.6713050645532961e-07 -4.8758462566555605e-05 0.0000000000000000e+00  4.6122517051324466e-06 -2.3700699759829695e-05 0.0000000000000000e+00  3.4297681702786004e-05 1.9113447016012410e-05 0.0000000000000000e+00  4.4017939378227483e-05 1.2638110798435993e-04 0.0000000000000000e+00  -2.4056458345433735e-05 2.4744286781713950e-04 0.0000000000000000e+00  -8.9002962806802302e-05 2.1412447110628115e-04 0.0000000000000000e+00  -9.3633847860648432e-05 1.5411963695793099e-04 0.0000000000000000e+00  -5.7116994757863525e-05 8.0077886601587949e-05 0.0000000000000000e+00  0.0000000000000000e+00 0.0000000000000000e+00 0.0000000000000000e+00  0.0000000000000000e+00 0.0000000000000000e+00 0.0000000000000000e+00  1.8225618926713644e-04 1.5600115157385369e-04 0.0000000000000000e+00  3.2970734448131396e-04 3.1331955610344574e-04 0.0000000000000000e+00  4.0078712510821458e-04 4.7295408802778378e-04 0.0000000000000000e+00  3.3771571572927504e-04 6.3520149277048897e-04 0.0000000000000000e+00  2.2355135057331994e-04 2.7158689163428294e-04 0.0000000000000000e+00  2.4339890285631979e-04 -4.0956343448347790e-05 0.0000000000000000e+00  1.9799442658209298e-04 1.5102373532454351e-05 0.0000000000000000e+00  9.8052178100367342e-05 3.3167536573437405e-05 0.0000000000000000e+00  2.5148796784452044e-05 3.7557562211468203e-05 0.0000000000000000e+00  -4.6641133707508318e-05 3.6993353700648329e-05 0.0000000000000000e+00  -1.4138723566856529e-04 3.7965910206056386e-05 0.0000000000000000e+00  -2.2585932697140586e-04 -7.0766613604754619e-05 0.0000000000000000e+00  -2.1685406659500885e-04 2.1069705118300462e-04 0.0000000000000000e+00  -3.4073520611873774e-04 5.8190272642581406e-04 0.0000000000000000e+00  -3.9906042578872661e-04 4.3679432279788424e-04 0.0000000000000000e+00  -3.2671950033743522e-04 2.9053909538417368e-04 0.0000000000000000e+00  -1.8022126372755910e-04 1.4493517643410857e-04 0.0000000000000000e+00  0.0000000000000000e+00 0.0000000000000000e+00 0.0000000000000000e+00  0.0000000000000000e+00 0.0000000000000000e+00 0.0000000000000000e+00  4.4166248067104707e-04 2.1906395726690642e-04 0.0000000000000000e+00  8.6047851420010353e-04 4.4832279254131407e-04 0.0000000000000000e+00  1.2305461263430822e-03 6.9997105745914364e-04 0.0000000000000000e+00  1.5199192183649080e-03 9.9105035100631694e-04 0.0000000000000000e+00  1.4606175641229760e-03 3.2589348156674796e-04 0.0000000000000000e+00  1.5141462760805214e-03 -3.3324971885051983e-04 0.0000000000000000e+00  1.0604589336424897e-03 -2.5042759248353186e-04 0.0000000000000000e+00  5.5210425560761524e-04 -2.0364370092469916e-04 0.0000000000000000e+00  2.2092277432644655e-05 -1.9100863626995756e-04 0.0000000000000000e+00  -5.1516001826911286e-04 -2.1362583980507488e-04 0.0000000000000000e+00  -1.0480050587595635e-03 -2.7898916315840844e-04 0.0000000000000000e+00  -1.5537034522399541e-03 -4.0612968666645718e-04 0.0000000000000000e+00  -1.5024338725933425e-03 2.6674382629265052e-04 0.0000000000000000e+00  -1.5371667354770547e-03 9.4458580467837944e-04 0.0000000000000000e+00  -1.2322031374484607e-03 6.6420127205451705e-04 0.0000000000000000e+00  -8.5664373824164612e-04 4.2444530935945469e-04 0.0000000000000000e+00  -4.3834494638479433e-04 2.0717431786004850e-04 0.0000000000000000e+00  0.0000000000000000e+00 0.0000000000000000e+00 0.0000000000000000e+00  0.0000000000000000e+00 0.0000000000000000e+00 0.0000000000000000e+00  7.9287769718290385e-04 2.4143290025256537e-04 0.0000000000000000e+00  1.5869207112837102e-03 4.9391661127163385e-04 0.0000000000000000e+00  2.3842416376664123e-03 7.6948013273508899e-04 0.0000000000000000e+00  3.1897920612829686e-03 1.0820595609273322e-03 0.0000000000000000e+00  3.1965795421319944e-03 3.0115592199231892e-04 0.0000000000000000e+00  3.2018147307776236e-03 -4.8989790200948771e-04 0.0000000000000000e+00  2.1407965118944786e-03 -3.7164787067696582e-04 0.0000000000000000e+00  1.0924120592812219e-03 -3.0372113227806655e-04 0.0000000000000000e+00  4.8044846792421132e-05 -2.7844252306103649e-04 0.0000000000000000e+00  -1.0007660484283737e-03 -2.9311339491303008e-04 0.0000000000000000e+00  -2.0621362521652865e-03 -3.4862660347705624e-04 0.0000000000000000e+00  -3.1427637539742461e-03 -4.4810111073425050e-04 0.0000000000000000e+00  -3.1544160309372946e-03 2.9023244514297345e-04 0.0000000000000000e+00  -3.1578759153065303e-03 1.0235217551110873e-03 0.0000000000000000e+00  -2.3486493388574911e-03 7.2939325266480547e-04 0.0000000000000000e+00  -1.5580613600525335e-03 4.6858935561765376e-04 0.0000000000000000e+00  -7.7698517523552911e-04 2.2912328317350886e-04 0.0000000000000000e+00  0.0000000000000000e+00 0.0000000000000000e+00 0.0000000000000000e+00  0.0000000000000000e+00 0.0000000000000000e+00 0.0000000000000000e+00  1.1400114588275905e-03 2.1965568929328995e-04 0.0000000000000000e+00  2.3012054864453456e-03 4.4731156789961062e-04 0.0000000000000000e+00  3.5065535793176064e-03 6.9110560582779691e-04 0.0000000000000000e+00  4.7829341220806502e-03 9.5927920380348001e-04 0.0000000000000000e+00  4.8264420711827093e-03 2.8695684075822394e-04 0.0000000000000000e+00  4.7848574836044031e-03 -3.8189237512925469e-04 0.0000000000000000e+00  3.1691261599671229e-03 -2.9112357439302290e-04 0.0000000000000000e+00  1.6159782759048323e-03 -2.3284461114833965e-04 0.0000000000000000e+00  9.1743990382977376e-05 -2.0575536231391459e-04 0.0000000000000000e+00  -1.4355299859395417e-03 -2.0891702339129710e-04 0.0000000000000000e+00  -2.9979071484546559e-03 -2.4210791725854132e-04 0.0000000000000000e+00  -4.6295441793463392e-03 -3.0566550261707339e-04 0.0000000000000000e+00  -4.6782894900903498e-03 3.0715460462180718e-04 0.0000000000000000e+00  -4.6370266009445856e-03 9.2040913332319815e-04 0.0000000000000000e+00  -3.3920879946453576e-03 6.6148276523420903e-04 0.0000000000000000e+00  -2.2223627080512889e-03 4.2751951758756304e-04 0.0000000000000000e+00  -1.0998120815517291e-03 2.0977263069001990e-04 0.0000000000000000e+00  0.0000000000000000e+00 0.0000000000000000e+00 0.0000000000000000e+00  0.0000000000000000e+00 0.0000000000000000e+00 0.0000000000000000e+00  1.4030294589075253e-03 1.6589237235606032e-04 0.0000000000000000e+00  2.8399716482515346e-03 3.3621236896569715e-04 0.0000000000000000e+00  4.3464942887892167e-03 5.1530584855280406e-04 0.0000000000000000e+00  5.9618737056266764e-03 7.0729494036366814e-04 0.0000000000000000e+00  6.0286147787870477e-03 2.8215066361120494e-04 0.0000000000000000e+00  5.9647100129955073e-03 -1.4251589614823240e-04 0.0000000000000000e+00  3.9452592354543223e-03 -8.0271671076204403e-05 0.0000000000000000e+00  2.0229930617886179e-03 -3.6831541870644729e-05 0.0000000000000000e+00  1.4751934658342744e-04 -1.1693104215177232e-05 0.0000000000000000e+00  -1.7291657316490868e-03 -4.2427617811989270e-06 0.0000000000000000e+00  -3.6550108688344221e-03 -1.3779205188341115e-05 0.0000000000000000e+00  -5.6802011746242120e-03 -3.9418643700603238e-05 0.0000000000000000e+00  -5.7485533283621196e-03 3.2064050708666467e-04 0.0000000000000000e+00  -5.6840856176706214e-03 6.7946354853324004e-04 0.0000000000000000e+00  -4.1364241378145207e-03 4.9384105884362015e-04 0.0000000000000000e+00  -2.6990566689618148e-03 3.2165830374057008e-04 0.0000000000000000e+00  -1.3323013253766726e-03 1.5855048603572580e-04 0.0000000000000000e+00  0.0000000000000000e+00 0.0000000000000000e+00 0.0000000000000000e+00  0.0000000000000000e+00 0.0000000000000000e+00 0.0000000000000000e+00  1.5309658760009402e-03 9.4408123628829540e-05 0.0000000000000000e+00  3.1015365684994253e-03 1.9003107600245057e-04 0.0000000000000000e+00  4.7528444509448839e-03 2.8795172873301658e-04 0.0000000000000000e+00  6.5291011900229824e-03 3.8897002712542976e-04 0.0000000000000000e+00  6.6056195926801516e-03 2.8113876817163915e-04 0.0000000000000000e+00  6.5309181882450161e-03 1.7365074087770214e-04 0.0000000000000000e+00  4.3305775379500191e-03 2.0606349291686979e-04 0.0000000000000000e+00  2.2418308194968603e-03 2.3266147366146706e-04 0.0000000000000000e+00  2.0805995173352998e-04 2.5339312000953522e-04 0.0000000000000000e+00  -1.8253295701238811e-03 2.6863936926452693e-04 0.0000000000000000e+00  -3.9128772777165524e-03 2.7920046421369175e-04 0.0000000000000000e+00  -6.1110392427639482e-03 2.8633249841279762e-04 0.0000000000000000e+00  -6.1866762969869787e-03 3.2813145462392223e-04 0.0000000000000000e+00  -6.1123032198224896e-03 3.6888713954553364e-04 0.0000000000000000e+00  -4.4413724769973373e-03 2.7247129034163614e-04 0.0000000000000000e+00  -2.8943940027648268e-03 1.7951147117384133e-04 0.0000000000000000e+00  -1.4275398311729441e-03 8.9089366363202932e-05 0.0000000000000000e+00  -2.6003284246473243e-11 2.3605853567169593e-12 0.0000000000000000e+00  0.0000000000000000e+00 0.0000000000000000e+00 0.0000000000000000e+00  1.5010053903993595e-03 1.8051919198052438e-05 0.0000000000000000e+00  3.0412595577817884e-03 3.4652629752526893e-05 0.0000000000000000e+00  4.6612454760086193e-03 4.8202533580795823e-05 0.0000000000000000e+00  6.4039270574211566e-03 5.6801652916872776e-05 0.0000000000000000e+00  6.4787632864595967e-03 2.8379393329322310e-04 0.0000000000000000e+00  6.4048996651773016e-03 5.1096343943816166e-04 0.0000000000000000e+00  4.2674418393031013e-03 5.1574415956649560e-04 0.0000000000000000e+00  2.2397728666238045e-03 5.2571316945766906e-04 0.0000000000000000e+00  2.6704758810365282e-04 5.4051274721958204e-04 0.0000000000000000e+00  -1.7039283500719169e-03 5.6034471482440632e-04 0.0000000000000000e+00  -3.7262817646505921e-03 5.8596036627023165e-04 0.0000000000000000e+00  -5.8546538416159684e-03 6.1867131194512197e-04 0.0000000000000000e+00  -5.9267482396425453e-03 3.3113859213725706e-04 0.0000000000000000e+00  -5.8537795167871668e-03 4.2691385823567236e-05 0.0000000000000000e+00  -4.2522297975535594e-03 3.7272424215320225e-05 0.0000000000000000e+00  -2.7702586783122131e-03 2.7203715943684502e-05 0.0000000000000000e+00  -1.3660019558549008e-03 1.4279679604671512e-05 0.0000000000000000e+00  0.0000000000000000e+00 0.0000000000000000e+00 0.0000000000000000e+00  0.0000000000000000e+00 0.0000000000000000e+00 0.0000000000000000e+00  1.3145771884382769e-03 -5.2501663196738843e-05 0.0000000000000000e+00  2.6631728802610746e-03 -1.0852773685864635e-04 0.0000000000000000e+00  4.0807194531167802e-03 -1.7175489405550976e-04 0.0000000000000000e+00  5.6040202286356065e-03 -2.4615831447689067e-04 0.0000000000000000e+00  5.6681610078983735e-03 2.8875956550848735e-04 0.0000000000000000e+00  5.6041022573163424e-03 8.2363312812084373e-04 0.0000000000000000e+00  3.7631566791786314e-03 8.0458881011826356e-04 0.0000000000000000e+00  2.0170154692853975e-03 7.9936291082524896e-04 0.0000000000000000e+00  3.1907577820162043e-04 8.0742073122076373e-04 0.0000000000000000e+00  -1.3760141959751830e-03 8.2882547361964941e-04 0.0000000000000000e+00  -3.1135312936057600e-03 8.6423486822070385e-04 0.0000000000000000e+00  -4.9398510177431840e-03 9.1490601084983096e-04 0.0000000000000000e+00  -4.9999709333523462e-03 3.2990225165386742e-04 0.0000000000000000e+00  -4.9375862347739571e-03 -2.5596137215742225e-04 0.0000000000000000e+00  -3.5864334888257303e-03 -1.7933105219420929e-04 0.0000000000000000e+00  -2.3362512932103667e-03 -1.1368578012478284e-04 0.0000000000000000e+00  -1.1518920101861157e-03 -5.5112813324244918e-05 0.0000000000000000e+00  0.0000000000000000e+00 0.0000000000000000e+00 0.0000000000000000e+00  0.0000000000000000e+00 0.0000000000000000e+00 0.0000000000000000e+00  9.9266364211952722e-04 -1.0894946841086792e-04 0.0000000000000000e+00  2.0104498658765880e-03 -2.2290264270284415e-04 0.0000000000000000e+00  3.0790681625876295e-03 -3.4701546291564234e-04 0.0000000000000000e+00  4.2254907192238126e-03 -4.8673995122397657e-04 0.0000000000000000e+00  4.2722568478288040e-03 2.9486353978794050e-04 0.0000000000000000e+00  4.2248418723094244e-03 1.0762771180309648e-03 0.0000000000000000e+00  2.8777568997408751e-03 1.0379788559880295e-03 0.0000000000000000e+00  1.6005905466528131e-03 1.0196948328635767e-03 0.0000000000000000e+00  3.5978812422713855e-04 1.0207538578406955e-03 0.0000000000000000e+00  -8.7735782746846392e-04 1.0410931036721257e-03 0.0000000000000000e+00  -2.1434756182065399e-03 1.0812563009963843e-03 0.0000000000000000e+00  -3.4718802416247247e-03 1.1423963434620411e-03 0.0000000000000000e+00  -3.5137753450171830e-03 3.2495786869645902e-04 0.0000000000000000e+00  -3.4686869615540082e-03 -4.9319781092488856e-04 0.0000000000000000e+00  -2.5184292540249105e-03 -3.5198145715771594e-04 0.0000000000000000e+00  -1.6399696115632382e-03 -2.2627291934567786e-04 0.0000000000000000e+00  -8.0840175264258599e-04 -1.1065279510907015e-04 0.0000000000000000e+00  0.0000000000000000e+00 0.0000000000000000e+00 0.0000000000000000e+00  0.0000000000000000e+00 0.0000000000000000e+00 0.0000000000000000e+00  5.7093552589339226e-04 -1.4537232486827722e-04 0.0000000000000000e+00  1.1556367053186145e-03 -2.9663648382635607e-04 0.0000000000000000e+00  1.7681357851756872e-03 -4.5983494964649605e-04 0.0000000000000000e+00  2.4231239220789216e-03 -6.4130727460086660e-04 0.0000000000000000e+00  2.4482157723004338e-03 3.0125626206313857e-04 0.0000000000000000e+00  2.4221676975496680e-03 1.2435445305911585e-03 0.0000000000000000e+00  1.7108260658931238e-03 1.1911253445903052e-03 0.0000000000000000e+00  1.0378718633342499e-03 1.1624634319958207e-03 0.0000000000000000e+00  3.8596457165809411e-04 1.1567694226725898e-03 0.0000000000000000e+00  -2.6179194148696395e-04 1.1738596200295433e-03 0.0000000000000000e+00  -9.2221250381464457e-04 1.2141555193813404e-03 0.0000000000000000e+00  -1.6123926720344266e-03 1.2786843128640014e-03 0.0000000000000000e+00  -1.6319391486141739e-03 3.1714988480949447e-04 0.0000000000000000e+00  -1.6084804547974692e-03 -6.4490683749473458e-04 0.0000000000000000e+00  -1.1649862432304378e-03 -4.6257279179437352e-04 0.0000