<?xml version="1.0"?>
<VTKFile type="UnstructuredGrid"  version="0.1"  >
<UnstructuredGrid>
<Piece  NumberOfPoints="589" NumberOfCells="1080">
<Points>
<DataArray  type="Float64"  NumberOfComponents="3"  format="ascii">-9 0 0  -8 0 0  -7 0 0  -6 0 0  -5 0 0  -4 0 0  -3 0 0  -2 0 0  -1 0 0  0 0 0  1 0 0  2 0 0  3 0 0  4 0 0  5 0 0  6 0 0  7 0 0  8 0 0  9 0 0  -9 2 0  -8.000005550311588 1.999991678745509 0  -7.00001162338835 1.999984389816708 0  -6.000019473424453 1.999978972492415 0  -5.000031988654126 1.999975798610683 0  -4.00001890376159 1.999981915899694 0  -3.000005483606638 1.999987745935134 0  -1.99999896328368 1.999993232070669 0  -0.9999979230366413 1.999997573925928 0  -3.124239492998857e-07 1.999999495346726 0  0.9999970318716487 1.999998220392469 0  1.999997175245612 1.99999407549896 0  3.000002164859334 1.999989013442453 0  4.000012606050629 1.999983667980541 0  5.000027713308364 1.999981703662894 0  6.000016643082305 1.99998232575565 0  7.000009880114279 1.999986311119479 0  8.000004717869523 1.999992574841337 0  9 2 0  -9 4 0  -8.000009009468846 3.99997922858084 0  -7.000016138956775 3.999961293508448 0  -6.000020286034341 3.999948971374295 0  -5.000021670070517 3.999944905307808 0  -4.000002604543148 3.999947849234566 0  -2.999989845861848 3.999964335914683 0  -1.999986568033039 3.999985769480665 0  -0.9999915171046223 4.000003026146835 0  -9.430224350219533e-07 4.000010026146576 0  0.9999894199155323 4.000004716014525 0  1.999983748682409 3.999990255337123 0  2.999986217058673 3.99997069984755 0  3.999998096807278 3.99995112846524 0  5.000016369441025 3.999944897099163 0  6.000016057066208 3.999951198673554 0  7.000013357246477 3.999963509211236 0  8.000007658086542 3.999980504356276 0  9 4 0  -9 6 0  -8.00001998804558 5.999955434959121 0  -7.000032584119431 5.999915747233253 0  -6.000032150808284 5.99988594770686 0  -5.000017079206435 5.999870830101148 0  -3.999979833990628 5.999895351781159 0  -2.999962952415594 5.999946401545655 0  -1.999969787769209 5.999999880073012 0  -0.9999866222256236 6.000029587748388 0  -3.620163554641035e-06 6.000035590919974 0  0.9999811217148754 6.00002609139837 0  1.999969483493244 5.99999973376462 0  2.999965051596285 5.999955192246583 0  3.999973697305414 5.999909083245146 0  5.000005217426414 5.999886441101794 0  6.000025020785769 5.999896037371728 0  7.000028831221036 5.999921970735543 0  8.000018433261774 5.999958433638362 0  9 6 0  -9 8 0  -8.000060529638757 7.999912140996313 0  -7.000101143404329 7.999830657749585 0  -6.000102566754975 7.999764205812024 0  -5.000048358434585 7.999727038822466 0  -3.999976102616773 7.999839938826654 0  -2.999989706567061 7.999972555816117 0  -2.000017108438045 8.000037066571009 0  -1.000019626845291 8.000044255016627 0  -3.619858202995183e-06 8.000046322103726 0  1.000008375093383 8.00005280157619 0  2.000003421874675 8.000026144313734 0  2.999972136133092 7.999980784700458 0  3.999961492936936 7.999868069670312 0  5.000031980483544 7.999740854986033 0  6.000097949373054 7.999775540778707 0  7.000101130986826 7.99983832407277 0  8.000061343009959 7.999915956588727 0  9 8 0  -9 10 0  -8.000180689468513 9.999843380422229 0  -7.000326411924921 9.999685499566027 0  -6.000395463467197 9.999525417137663 0  -5.000329804830171 9.999362948742856 0  -4.000214980376189 9.999728056628522 0  -3.000234308215278 10.00004191615671 0  -2.000188236156197 9.999987348089538 0  -1.000087626511292 9.99996984206701 0  -1.370735463192845e-05 9.999965575776647 0  1.000059517291854 9.999965953686583 0  2.000156929124896 9.99996418573903 0  3.000242660771677 10.00007649440469 0  4.00023186892277 9.999781611948018 0  5.000361324075215 9.999392405487574 0  6.00042193120005 9.999542727935106 0  7.000345248763305 9.99969532164242 0  8.000190433546804 9.999847861950718 0  9 10 0  -9 12 0  -8.000440507039162 11.99977974301395 0  -7.000858020745004 11.99954927945922 0  -6.001226539558076 11.99929640227317 0  -5.001513825583682 11.99900408317102 0  -4.001454760628251 11.99967098834214 0  -3.001508277172924 12.00033131889824 0  -2.001039276937537 12.00025099770951 0  -1.00051651744361 12.00020716979073 0  2.676550800671426e-05 12.00019801131822 0  1.00057573726958 12.00022485455099 0  2.001117941199285 12.00029563406635 0  3.001628862967235 12.0004302539672 0  4.001572793986841 11.99972206997307 0  5.001610147049166 11.99900808510124 0  6.001294600218403 11.99930099955117 0  7.000901662242009 11.99955263682111 0  8.000461853676727 11.99978144072644 0  9 12 0  -9 14 0  -8.000791862779339 13.99975702042357 0  -7.001584912367313 13.99950286714832 0  -6.002381354718572 13.99922537897998 0  -5.003186074570586 13.99891045825984 0  -4.003193979256289 13.99969167673097 0  -3.003199231299677 14.0004827701401 0  -2.002106174376462 14.00036883655652 0  -1.001027864855012 14.00030596332077 0  4.45785563329514e-05 14.00028657189972 0  1.001119655655994 14.00030817010442 0  2.002205278922145 14.0003719517159 0  3.003307663722461 14.0004813986618 0  4.00331645613262 13.99969490611298 0  5.003321313958901 13.99891331947464 0  6.002475800199831 13.99922471776761 0  7.001644953366885 13.99950148730686 0  8.000821077674182 13.99975610846235 0  9 14 0  -9 16 0  -8.001137876278229 15.99977905184627 0  -7.00229725307532 15.99954991956384 0  -6.00350148289509 15.99930427401294 0  -5.00477773974298 15.99903363287378 0  -4.004822772964462 15.99970244819232 0  -3.004780392817168 16.00036774083763 0  -2.003115616720677 16.00028290966688 0  -1.001516423854087 16.00023121248832 0  5.187581087078605e-05 16.00021151929376 0  1.001622093589483 16.00022309143131 0  2.003227064399454 16.00026594639998 0  3.004901724352698 16.00034069250876 0  4.004949731781461 15.99967496211116 0  5.004907947247577 15.99900871051502 0  6.003596583829607 15.99928718114812 0  7.002359301224153 15.99953909229049 0  8.001168478672236 15.99977377929817 0  9 16 0  -9 18 0  -8.00139726164304 17.99983383556098 0  -7.002829052225223 17.99966308755424 0  -6.00433169407251 17.99948325203571 0  -5.005945093740042 17.99929000834145 0  -4.006013460364336 17.99970532463744 0  -3.005947794884576 18.00012010154812 0  -2.003864691369209 18.00006483928989 0  -1.001882333538027 18.00002885176917 0  5.145861262768784e-05 18.00001180633515 0  1.00198634461705 18.00001327320133 0  2.003971914686366 18.00003275154909 0  3.006060109039926 18.00006957197776 0  4.006129796710362 17.99965994147361 0  5.006063530689739 17.99925151063478 0  6.004419045555357 17.99945603022316 0  7.002886554963603 17.99964568458438 0  8.001425788855284 17.99982534835344 0  9 18 0  -9 20 0  -8.001517947960417 19.99990694405792 0  -7.003076293061393 19.99981262112601 0  -6.004716978841827 19.999715897243 0  -5.006485044707341 19.9996159026808 0  -4.006563255058758 19.99970571714376 0  -3.006486247525952 19.99979495757582 0  -2.00421300081221 19.9997699601943 0  -1.002055038265367 19.99975102178005 0  4.661659648118107e-05 19.99973834175226 0  1.002148804909109 19.99973169661244 0  2.004308336275658 19.99973045451499 0  3.006584100115149 19.99973353814361 0  4.006662571027577 19.99965238091677 0  5.006585206523504 19.99957206601127 0  6.00479147158258 19.99968438228211 0  7.003125645218598 19.99979225918641 0  8.00154252901117 19.99989695701881 0  8.999999999991495 19.99999999999801 0  -9 22 0  -8.001476506271603 21.99998510955757 0  -7.002993023785921 21.99997175619513 0  -6.004590823546573 21.99996162771613 0  -5.006313689230481 21.99995671648716 0  -4.006390360358173 21.99970286724143 0  -3.006314392130198 21.99944840233391 0  -2.004102421109519 21.99945094338617 0  -1.002003573680119 21.99944826486515 0  3.963380657351833e-05 21.99944084388232 0  1.002082938067639 21.99942860582187 0  2.004182052361787 21.99941093462236 0  3.006394391274095 21.99938666235636 0  4.006469893839341 21.99964990560047 0  5.006392807071554 21.99991366170661 0  6.004650282525926 21.99993048608929 0  7.003032706192417 21.99995153876998 0  8.001496356093167 21.99997516369625 0  9 22 0  -9 24 0  -8.001274465691612 24.00005712723097 0  -7.002583453189663 24.00011799124396 0  -6.00396245475761 24.00018648480852 0  -5.005448857462551 24.00026682038301 0  -4.005514985200786 23.9996971124006 0  -3.005449789259524 23.99912687049483 0  -2.003541528063197 23.99915271934755 0  -1.001730556608238 23.99916439675296 0  3.231390068803235e-05 23.99916253205792 0  1.001794943230442 23.99914715875727 0  2.003605171075777 23.99911771709903 0  3.005512127066099 23.9990730497069 0  4.005575306479637 23.99965131917935 0  5.005507855161446 24.00022991674511 0  6.004007396480536 24.00015966520764 0  7.002613729601682 24.00010052021638 0  8.001289692800331 24.00004851448218 0  9 24 0  -9 26 0  -8.000933703911032 26.00011420915642 0  -7.001892579263062 26.00023371494864 0  -6.002902476042389 26.00036397263057 0  -5.00399050317611 26.00051076339867 0  -4.004039236195968 25.99968896162182 0  -3.003992184479841 25.99886675889457 0  -2.002593575559918 25.99891098487182 0  -1.001266087563901 25.99893450032744 0  2.604784281299769e-05 25.99893805497154 0  1.001317692971793 25.99892177955743 0  2.00264369006686 25.99888518718305 0  3.0040397463828 25.99882717155336 0  4.004083667400822 25.99965546551789 0  5.004032954756312 26.00048393540803 0  6.002935446027895 26.00034442017008 0  7.001915082470847 26.00022095063609 0  8.000945106629974 26.00010790806473 0  9 26 0  -9 28 0  -8.0004915252351 28.00015011755225 0  -7.000996286372121 28.00030643844048 0  -6.001527895872369 28.00047532694169 0  -5.002100581206139 28.00066347340215 0  -4.002127261659727 27.99967922081171 0  -3.002103248624494 27.9986947686555 0  -2.001363195641186 27.9987518855311 0  -1.000661138904007 27.9987842377055 0  2.183489033110542e-05 27.99879268298402 0  1.000704159019883 27.99877744642389 0  2.001404244339554 27.99873812144922 0  3.002140936763866 27.99867366863291 0  4.002161148858318 27.99966146118215 0  5.00213210335723 28.0006493450048 0  6.001552954318388 28.00046500894469 0  7.001013652178146 28.00029969191916 0  8.000500401519307 
[...]
<PointData  Vectors="f_42"> 
<DataArray  type="Float64"  Name="f_42"  NumberOfComponents="3" format="ascii">0.0000000000000000e+00 0.0000000000000000e+00 0.0000000000000000e+00  0.0000000000000000e+00 0.0000000000000000e+00 0.0000000000000000e+00  0.0000000000000000e+00 0.0000000000000000e+00 0.0000000000000000e+00  0.0000000000000000e+00 0.0000000000000000e+00 0.0000000000000000e+00  0.0000000000000000e+00 0.0000000000000000e+00 0.0000000000000000e+00  0.0000000000000000e+00 0.0000000000000000e+00 0.0000000000000000e+00  0.0000000000000000e+00 0.0000000000000000e+00 0.0000000000000000e+00  0.0000000000000000e+00 0.0000000000000000e+00 0.0000000000000000e+00  0.0000000000000000e+00 0.0000000000000000e+00 0.0000000000000000e+00  0.0000000000000000e+00 0.0000000000000000e+00 0.0000000000000000e+00  0.0000000000000000e+00 0.0000000000000000e+00 0.0000000000000000e+00  0.0000000000000000e+00 0.0000000000000000e+00 0.0000000000000000e+00  0.0000000000000000e+00 0.0000000000000000e+00 0.0000000000000000e+00  0.0000000000000000e+00 0.0000000000000000e+00 0.0000000000000000e+00  0.0000000000000000e+00 0.0000000000000000e+00 0.0000000000000000e+00  0.0000000000000000e+00 0.0000000000000000e+00 0.0000000000000000e+00  0.0000000000000000e+00 0.0000000000000000e+00 0.0000000000000000e+00  0.0000000000000000e+00 0.0000000000000000e+00 0.0000000000000000e+00  0.0000000000000000e+00 0.0000000000000000e+00 0.0000000000000000e+00  0.0000000000000000e+00 0.0000000000000000e+00 0.0000000000000000e+00  -5.5503115937755671e-06 -8.3212544905433243e-06 0.0000000000000000e+00  -1.1623388348897677e-05 -1.5610183291423080e-05 0.0000000000000000e+00  -1.9473424449636372e-05 -2.1027507584547399e-05 0.0000000000000000e+00  -3.1988654126098400e-05 -2.4201389317960334e-05 0.0000000000000000e+00  -1.8903761588815147e-05 -1.8084100306059460e-05 0.0000000000000000e+00  -5.4836066396901704e-06 -1.2254064866609473e-05 0.0000000000000000e+00  1.0367163213133183e-06 -6.7679293314259346e-06 0.0000000000000000e+00  2.0769633585799512e-06 -2.4260740728507767e-06 0.0000000000000000e+00  -3.1242394929988573e-07 -5.0465327403294961e-07 0.0000000000000000e+00  -2.9681283508043160e-06 -1.7796075307019119e-06 0.0000000000000000e+00  -2.8247543893946954e-06 -5.9245010393983654e-06 0.0000000000000000e+00  2.1648593348672947e-06 -1.0986557547964294e-05 0.0000000000000000e+00  1.2606050629713708e-05 -1.6332019459804819e-05 0.0000000000000000e+00  2.7713308361651376e-05 -1.8296337105917405e-05 0.0000000000000000e+00  1.6643082301272730e-05 -1.7674244350535943e-05 0.0000000000000000e+00  9.8801142814553828e-06 -1.3688880521201167e-05 0.0000000000000000e+00  4.7178695169006206e-06 -7.4251586639612242e-06 0.0000000000000000e+00  0.0000000000000000e+00 0.0000000000000000e+00 0.0000000000000000e+00  0.0000000000000000e+00 0.0000000000000000e+00 0.0000000000000000e+00  -9.0094688400274849e-06 -2.0771419161470173e-05 0.0000000000000000e+00  -1.6138956767803385e-05 -3.8706491553568172e-05 0.0000000000000000e+00  -2.0286034341386782e-05 -5.1028625706292653e-05 0.0000000000000000e+00  -2.1670070519487803e-05 -5.5094692192341739e-05 0.0000000000000000e+00  -2.6045431480668627e-06 -5.2150765432468378e-05 0.0000000000000000e+00  1.0154138152208403e-05 -3.5664085316226925e-05 0.0000000000000000e+00  1.3431966960425212e-05 -1.4230519336508078e-05 0.0000000000000000e+00  8.4828953778427658e-06 3.0261468366661082e-06 0.0000000000000000e+00  -9.4302243502195327e-07 1.0026146576594793e-05 0.0000000000000000e+00  -1.0580084467999497e-05 4.7160145289821216e-06 0.0000000000000000e+00  -1.6251317590455302e-05 -9.7446628775853302e-06 0.0000000000000000e+00  -1.3782941323518461e-05 -2.9300152450327160e-05 0.0000000000000000e+00  -1.9031927233224119e-06 -4.8871534759770049e-05 0.0000000000000000e+00  1.6369441020806807e-05 -5.5102900835634774e-05 0.0000000000000000e+00  1.6057066205782825e-05 -4.8801326446321021e-05 0.0000000000000000e+00  1.3357246476043479e-05 -3.6490788762761416e-05 0.0000000000000000e+00  7.6580865544016399e-06 -1.9495643723842255e-05 0.0000000000000000e+00  0.0000000000000000e+00 0.0000000000000000e+00 0.0000000000000000e+00  0.0000000000000000e+00 0.0000000000000000e+00 0.0000000000000000e+00  -1.9988045581376746e-05 -4.4565040883550903e-05 0.0000000000000000e+00  -3.2584119431477673e-05 -8.4252766746071886e-05 0.0000000000000000e+00  -3.2150808286585777e-05 -1.1405229314364495e-04 0.0000000000000000e+00  -1.7079206432554014e-05 -1.2916989884894628e-04 0.0000000000000000e+00  2.0166009373472931e-05 -1.0464821883631215e-04 0.0000000000000000e+00  3.7047584407042459e-05 -5.3598454339679137e-05 0.0000000000000000e+00  3.0212230790920573e-05 -1.1992699020360512e-07 0.0000000000000000e+00  1.3377774376614851e-05 2.9587748390095626e-05 0.0000000000000000e+00  -3.6201635546410348e-06 3.5590919972363070e-05 0.0000000000000000e+00  -1.8878285124776550e-05 2.6091398371513865e-05 0.0000000000000000e+00  -3.0516506756167222e-05 -2.6623538193637026e-07 0.0000000000000000e+00  -3.4948403716086113e-05 -4.4807753411120519e-05 0.0000000000000000e+00  -2.6302694587228801e-05 -9.0916754852438174e-05 0.0000000000000000e+00  5.2174264119846517e-06 -1.1355889820716717e-04 0.0000000000000000e+00  2.5020785765085412e-05 -1.0396262826962062e-04 0.0000000000000000e+00  2.8831221036627412e-05 -7.8029264457170580e-05 0.0000000000000000e+00  1.8433261774790444e-05 -4.1566361636768906e-05 0.0000000000000000e+00  0.0000000000000000e+00 0.0000000000000000e+00 0.0000000000000000e+00  0.0000000000000000e+00 0.0000000000000000e+00 0.0000000000000000e+00  -6.0529638763948002e-05 -8.7859003686764531e-05 0.0000000000000000e+00  -1.0114340432973415e-04 -1.6934225041724841e-04 0.0000000000000000e+00  -1.0256675497794432e-04 -2.3579418798159090e-04 0.0000000000000000e+00  -4.8358434586450085e-05 -2.7296117752853983e-04 0.0000000000000000e+00  2.3897383227397222e-05 -1.6006117334314474e-04 0.0000000000000000e+00  1.0293432937806408e-05 -2.7444183881504478e-05 0.0000000000000000e+00  -1.7108438045113213e-05 3.7066571011316722e-05 0.0000000000000000e+00  -1.9626845291183818e-05 4.4255016626904384e-05 0.0000000000000000e+00  -3.6198582029951829e-06 4.6322103727187451e-05 0.0000000000000000e+00  8.3750933842152626e-06 5.2801576185545983e-05 0.0000000000000000e+00  3.4218746734670668e-06 2.6144313729093007e-05 0.0000000000000000e+00  -2.7863866909366755e-05 -1.9215299538806385e-05 0.0000000000000000e+00  -3.8507063063201399e-05 -1.3193032968746639e-04 0.0000000000000000e+00  3.1980483540318539e-05 -2.5914501397017356e-04 0.0000000000000000e+00  9.7949373058476221e-05 -2.2445922129190148e-04 0.0000000000000000e+00  1.0113098682522789e-04 -1.6167592723528862e-04 0.0000000000000000e+00  6.1343009959165747e-05 -8.4043411273496590e-05 0.0000000000000000e+00  0.0000000000000000e+00 0.0000000000000000e+00 0.0000000000000000e+00  0.0000000000000000e+00 0.0000000000000000e+00 0.0000000000000000e+00  -1.8068946851399717e-04 -1.5661957777206428e-04 0.0000000000000000e+00  -3.2641192491905544e-04 -3.1450043396927469e-04 0.0000000000000000e+00  -3.9546346719642822e-04 -4.7458286233087601e-04 0.0000000000000000e+00  -3.2980483017216647e-04 -6.3705125714578483e-04 0.0000000000000000e+00  -2.1498037618510659e-04 -2.7194337147746302e-04 0.0000000000000000e+00  -2.3430821528025176e-04 4.1916156706497953e-05 0.0000000000000000e+00  -1.8823615619924721e-04 -1.2651910462638925e-05 0.0000000000000000e+00  -8.7626511292211942e-05 -3.0157932986901406e-05 0.0000000000000000e+00  -1.3707354631928449e-05 -3.4424223361797680e-05 0.0000000000000000e+00  5.9517291855523079e-05 -3.4046313413834936e-05 0.0000000000000000e+00  1.5692912489574285e-04 -3.5814260974932311e-05 0.0000000000000000e+00  2.4266077167672375e-04 7.6494404682318231e-05 0.0000000000000000e+00  2.3186892277384910e-04 -2.1838805198073132e-04 0.0000000000000000e+00  3.6132407521912476e-04 -6.0759451242947638e-04 0.0000000000000000e+00  4.2193120005168139e-04 -4.5727206489250499e-04 0.0000000000000000e+00  3.4524876330201582e-04 -3.0467835758042497e-04 0.0000000000000000e+00  1.9043354680237996e-04 -1.5213804928257687e-04 0.0000000000000000e+00  0.0000000000000000e+00 0.0000000000000000e+00 0.0000000000000000e+00  0.0000000000000000e+00 0.0000000000000000e+00 0.0000000000000000e+00  -4.4050703916687393e-04 -2.2025698604918913e-04 0.0000000000000000e+00  -8.5802074500323936e-04 -4.5072054077946428e-04 0.0000000000000000e+00  -1.2265395580728698e-03 -7.0359772682800417e-04 0.0000000000000000e+00  -1.5138255836836998e-03 -9.9591682897931543e-04 0.0000000000000000e+00  -1.4547606282523265e-03 -3.2901165786369395e-04 0.0000000000000000e+00  -1.5082771729236475e-03 3.3131889823563527e-04 0.0000000000000000e+00  -1.0392769375366596e-03 2.5099770951803610e-04 0.0000000000000000e+00  -5.1651744360952799e-04 2.0716979073435912e-04 0.0000000000000000e+00  2.6765508006714256e-05 1.9801131822080368e-04 0.0000000000000000e+00  5.7573726958075745e-04 2.2485455099070743e-04 0.0000000000000000e+00  1.1179411992852147e-03 2.9563406635534610e-04 0.0000000000000000e+00  1.6288629672342784e-03 4.3025396719003787e-04 0.0000000000000000e+00  1.5727939868443010e-03 -2.7793002692305099e-04 0.0000000000000000e+00  1.6101470491610629e-03 -9.9191489875742416e-04 0.0000000000000000e+00  1.2946002184004209e-03 -6.9900044882837277e-04 0.0000000000000000e+00  9.0166224201232719e-04 -4.4736317889552837e-04 0.0000000000000000e+00  4.6185367672872034e-04 -2.1855927355987644e-04 0.0000000000000000e+00  0.0000000000000000e+00 0.0000000000000000e+00 0.0000000000000000e+00  0.0000000000000000e+00 0.0000000000000000e+00 0.0000000000000000e+00  -7.9186277933989476e-04 -2.4297957642603171e-04 0.0000000000000000e+00  -1.5849123673151268e-03 -4.9713285168343727e-04 0.0000000000000000e+00  -2.3813547185734902e-03 -7.7462102002080638e-04 0.0000000000000000e+00  -3.1860745705877885e-03 -1.0895417401578698e-03 0.0000000000000000e+00  -3.1939792562892554e-03 -3.0832326902120879e-04 0.0000000000000000e+00  -3.1992312996743616e-03 4.8277014009807993e-04 0.0000000000000000e+00  -2.1061743764627201e-03 3.6883655651435027e-04 0.0000000000000000e+00  -1.0278648550106231e-03 3.0596332076236168e-04 0.0000000000000000e+00  4.4578556332951399e-05 2.8657189972384112e-04 0.0000000000000000e+00  1.1196556559928423e-03 3.0817010442885372e-04 0.0000000000000000e+00  2.2052789221441412e-03 3.7195171590031714e-04 0.0000000000000000e+00  3.3076637224621636e-03 4.8139866179441903e-04 0.0000000000000000e+00  3.3164561326188245e-03 -3.0509388702163972e-04 0.0000000000000000e+00  3.3213139589030752e-03 -1.0866805253546843e-03 0.0000000000000000e+00  2.4758001998313999e-03 -7.7528223239133108e-04 0.0000000000000000e+00  1.6449533668847227e-03 -4.9851269314537660e-04 0.0000000000000000e+00  8.2107767417767302e-04 -2.4389153765197086e-04 0.0000000000000000e+00  0.0000000000000000e+00 0.0000000000000000e+00 0.0000000000000000e+00  0.0000000000000000e+00 0.0000000000000000e+00 0.0000000000000000e+00  -1.1378762782304278e-03 -2.2094815374571505e-04 0.0000000000000000e+00  -2.2972530753185903e-03 -4.5008043615895677e-04 0.0000000000000000e+00  -3.5014828950869657e-03 -6.9572598705849517e-04 0.0000000000000000e+00  -4.7777397429814208e-03 -9.6636712623195998e-04 0.0000000000000000e+00  -4.8227729644580919e-03 -2.9755180767136090e-04 0.0000000000000000e+00  -4.7803928171693570e-03 3.6774083761429235e-04 0.0000000000000000e+00  -3.1156167206760729e-03 2.8290966688656710e-04 0.0000000000000000e+00  -1.5164238540868052e-03 2.3121248831507718e-04 0.0000000000000000e+00  5.1875810870786051e-05 2.1151929377345472e-04 0.0000000000000000e+00  1.6220935894828159e-03 2.2309143131604798e-04 0.0000000000000000e+00  3.2270643994520756e-03 2.6594639998390193e-04 0.0000000000000000e+00  4.9017243527000312e-03 3.4069250876280209e-04 0.0000000000000000e+00  4.9497317814601993e-03 -3.2503788883023963e-04 0.0000000000000000e+00  4.9079472475805552e-03 -9.9128948498714725e-04 0.0000000000000000e+00  3.5965838296108193e-03 -7.1281885188804442e-04 0.0000000000000000e+00  2.3593012241513401e-03 -4.6090770951228241e-04 0.0000000000000000e+00  1.1684786722351674e-03 -2.2622070182148194e-04 0.0000000000000000e+00  0.0000000000000000e+00 0.0000000000000000e+00 0.0000000000000000e+00  0.0000000000000000e+00 0.0000000000000000e+00 0.0000000000000000e+00  -1.3972616430252837e-03 -1.6616443901519830e-04 0.0000000000000000e+00  -2.8290522252226724e-03 -3.3691244574920738e-04 0.0000000000000000e+00  -4.3316940725084139e-03 -5.1674796429922317e-04 0.0000000000000000e+00  -5.9450937400431095e-03 -7.0999165855007047e-04 0.0000000000000000e+00  -6.0134603643352920e-03 -2.9467536256366235e-04 0.0000000000000000e+00  -5.9477948845765754e-03 1.2010154811867022e-04 0.0000000000000000e+00  -3.8646913692095609e-03 6.4839289888740583e-05 0.0000000000000000e+00  -1.8823335380287870e-03 2.8851769169799303e-05 0.0000000000000000e+00  5.1458612627687838e-05 1.1806335132619335e-05 0.0000000000000000e+00  1.9863446170499737e-03 1.3273201342783224e-05 0.0000000000000000e+00  3.9719146863633412e-03 3.2751549087708006e-05 0.0000000000000000e+00  6.0601090399244771e-03 6.9571977740793780e-05 0.0000000000000000e+00  6.1297967103606547e-03 -3.4005852639817973e-04 0.0000000000000000e+00  6.0635306897406805e-03 -7.4848936522935573e-04 0.0000000000000000e+00  4.4190455553539173e-03 -5.4396977684568169e-04 0.0000000000000000e+00  2.8865549636084551e-03 -3.5431541561776081e-04 0.0000000000000000e+00  1.4257888552848320e-03 -1.7465164655811022e-04 0.0000000000000000e+00  0.0000000000000000e+00 0.0000000000000000e+00 0.0000000000000000e+00  0.0000000000000000e+00 0.0000000000000000e+00 0.0000000000000000e+00  -1.5179479604123676e-03 -9.3055942085442232e-05 0.0000000000000000e+00  -3.0762930613917015e-03 -1.8737887399157657e-04 0.0000000000000000e+00  -4.7169788418293130e-03 -2.8410275697977964e-04 0.0000000000000000e+00  -6.4850447073401237e-03 -3.8409731919710974e-04 0.0000000000000000e+00  -6.5632550587550230e-03 -2.9428285623020711e-04 0.0000000000000000e+00  -6.4862475259527081e-03 -2.0504242418032743e-04 0.0000000000000000e+00  -4.2130008122100663e-03 -2.3003980568700534e-04 0.0000000000000000e+00  -2.0550382653669935e-03 -2.4897821993830917e-04 0.0000000000000000e+00  4.6616596481181073e-05 -2.6165824772661229e-04 0.0000000000000000e+00  2.1488049091085244e-03 -2.6830338756261466e-04 0.0000000000000000e+00  4.3083362756602310e-03 -2.6954548502773645e-04 0.0000000000000000e+00  6.5841001151506120e-03 -2.6646185640364110e-04 0.0000000000000000e+00  6.6625710275789183e-03 -3.4761908324090871e-04 0.0000000000000000e+00  6.5852065235063031e-03 -4.2793398872194825e-04 0.0000000000000000e+00  4.7914715825797399e-03 -3.1561771788746488e-04 0.0000000000000000e+00  3.1256452185969724e-03 -2.0774081359195267e-04 0.0000000000000000e+00  1.5425290111615308e-03 -1.0304298119893038e-04 0.0000000000000000e+00  -8.5091598848544357e-12 -1.9906039559282692e-12 0.0000000000000000e+00  0.0000000000000000e+00 0.0000000000000000e+00 0.0000000000000000e+00  -1.4765062715992067e-03 -1.4890442434714998e-05 0.0000000000000000e+00  -2.9930237859220874e-03 -2.8243804868690153e-05 0.0000000000000000e+00  -4.5908235465699290e-03 -3.8372283863006700e-05 0.0000000000000000e+00  -6.3136892304783221e-03 -4.3283512833310715e-05 0.0000000000000000e+00  -6.3903603581709654e-03 -2.9713275854810375e-04 0.0000000000000000e+00  -6.3143921302004392e-03 -5.5159766607317624e-04 0.0000000000000000e+00  -4.1024211095180537e-03 -5.4905661380905927e-04 0.0000000000000000e+00  -2.0035736801188773e-03 -5.5173513483768933e-04 0.0000000000000000e+00  3.9633806573518327e-05 -5.5915611770639563e-04 0.0000000000000000e+00  2.0829380676393671e-03 -5.7139417814966312e-04 0.0000000000000000e+00  4.1820523617865360e-03 -5.8906537765155613e-04 0.0000000000000000e+00  6.3943912740943533e-03 -6.1333764364230508e-04 0.0000000000000000e+00  6.4698938393436441e-03 -3.5009439951159076e-04 0.0000000000000000e+00  6.3928070715560358e-03 -8.6338293397814018e-05 0.0000000000000000e+00  4.6502825259248535e-03 -6.9513910702968573e-05 0.0000000000000000e+00  3.0327061924138666e-03 -4.8461230001372530e-05 0.0000000000000000e+00  1.4963560931642416e-03 -2.4836303748718954e-05 0.0000000000000000e+00  0.0000000000000000e+00 0.0000000000000000e+00 0.0000000000000000e+00  0.0000000000000000e+00 0.0000000000000000e+00 0.0000000000000000e+00  -1.2744656916072951e-03 5.7127230979956601e-05 0.0000000000000000e+00  -2.5834531896629684e-03 1.1799124396240413e-04 0.0000000000000000e+00  -3.9624547576132558e-03 1.8648480852543489e-04 0.0000000000000000e+00  -5.4488574625467280e-03 2.6682038300313601e-04 0.0000000000000000e+00  -5.5149852007862123e-03 -3.0288759939956162e-04 0.0000000000000000e+00  -5.4497892595227661e-03 -8.7312950517838160e-04 0.0000000000000000e+00  -3.5415280631947319e-03 -8.4728065244818961e-04 0.0000000000000000e+00  -1.7305566082377957e-03 -8.3560324704212664e-04 0.0000000000000000e+00  3.2313900688032350e-05 -8.3746794207726401e-04 0.0000000000000000e+00  1.7949432304419325e-03 -8.5284124273207035e-04 0.0000000000000000e+00  3.6051710757787608e-03 -8.8228290094768773e-04 0.0000000000000000e+00  5.5121270660993486e-03 -9.2695029309791275e-04 0.0000000000000000e+00  5.5753064796338807e-03 -3.4868082065237220e-04 0.0000000000000000e+00  5.5078551614464585e-03 2.2991674509575318e-04 0.0000000000000000e+00  4.0073964805410096e-03 1.5966520763896494e-04 0.0000000000000000e+00  2.6137296016830384e-03 1.0052021637960044e-04 0.0000000000000000e+00  1.2896928003331446e-03 4.8514482197687219e-05 0.0000000000000000e+00  0.0000000000000000e+00 0.0000000000000000e+00 0.0000000000000000e+00  0.0000000000000000e+00 0.0000000000000000e+00 0.0000000000000000e+00  -9.3370391103320962e-04 1.1420915641136202e-04 0.0000000000000000e+00  -1.8925792630650460e-03 2.3371494865748939e-04 0.0000000000000000e+00  -2.9024760423895708e-03 3.6397263055518354e-04 0.0000000000000000e+00  -3.9905031761071214e-03 5.1076339867365465e-04 0.0000000000000000e+00  -4.0392361959693786e-03 -3.1103837816646562e-04 0.0000000000000000e+00  -3.9921844798370323e-03 -1.1332411054305563e-03 0.0000000000000000e+00  -2.5935755599187558e-03 -1.0890151281711833e-03 0.0000000000000000e+00  -1.2660875638998883e-03 -1.0654996725516749e-03 0.0000000000000000e+00  2.6047842812997686e-05 -1.0619450284582478e-03 0.0000000000000000e+00  1.3176929717930589e-03 -1.0782204425521295e-03 0.0000000000000000e+00  2.6436900668597922e-03 -1.1148128169683269e-03 0.0000000000000000e+00  4.0397463827985857e-03 -1.1728284466467986e-03 0.0000000000000000e+00  4.0836674008212018e-03 -3.4453448211475303e-04 0.0000000000000000e+00  4.0329547563099175e-03 4.8393540803479444e-04 0.0000000000000000e+00  2.9354460278957131e-03 3.4442017007394946e-04 0.0000000000000000e+00  1.9150824708461509e-03 2.2095063609636910e-04 0.0000000000000000e+00  9.4510662997790375e-04 1.0790806474702001e-04 0.0000000000000000e+00  0.0000000000000000e+00 0.0000000000000000e+00 0.0000000000000000e+00  0.0000000000000000e+00 0.0000000000000000e+00 0.0000000000000000e+00  -4.9152523509449100e-04 1.5011755225173624e-04 0.0000000000000000e+00  -9.9628637212414344e-04 3.0643844046845421e-04 0.0000000000000000e+00  -1.5278958723688341e-03 4.7532694169009356e-04 0.0000000000000000e+00  -2.1005812061408525e-03 6.6347340214484112e-04 0.0000000000000000e+00  -2.1272616597307783e-03 -3.2077918829713411e-04 0.0000000000000000e+00  -2.1032486244920595e-03 -1.3052313445184518e-03 0.0000000000000000e+00  -1.3631956411863497e-03 -1.2481144689161306e-03 0.0000000000000000e+00  -6.6113890400709859e-04 -1.2157622945086126e-03 0.0000000000000000e+00  2.1834890331105415e-05 -1.2073170159807290e-03 0.0000000000000000e+00  7.0415901988343343e-04 -1.2225535761059556e-03 0.0000000000000000e+00  1.4042443395552897e-03 -1.2618785507750540e-03 0.0000000000000000e+00  2.1409367638694737e-03 -1.3263313671038656e-03 0.0000000000000000e+00  2.1611488583159616e-03 -3.3853881785158018e-04 0.0000000000000000e+00 