<?xml version="1.0"?>
<VTKFile type="UnstructuredGrid"  version="0.1"  >
<UnstructuredGrid>
<Piece  NumberOfPoints="589" NumberOfCells="1080">
<Points>
<DataArray  type="Float64"  NumberOfComponents="3"  format="ascii">-9 0 0  -8 0 0  -7 0 0  -6 0 0  -5 0 0  -4 0 0  -3 0 0  -2 0 0  -1 0 0  0 0 0  1 0 0  2 0 0  3 0 0  4 0 0  5 0 0  6 0 0  7 0 0  8 0 0  9 0 0  -9 2 0  -7.999996359810817 2.000004861120547 0  -6.999992430852099 2.000009143797412 0  -5.999987506625046 2.0000123799621 0  -4.999979947022021 2.000014368012979 0  -3.999987657374712 2.000010651732189 0  -2.999995557714832 2.000007237838093 0  -1.999999475099248 2.000004075880927 0  -1.00000026036458 2.000001554158445 0  9.435504639376357e-07 2.000000369838588 0  1.000002396803854 2.000000921917154 0  2.000002450312921 2.0000029895313 0  3.000000048238181 2.000005451826455 0  3.999994994986174 2.000007813677987 0  4.999987905123318 2.000007896597169 0  5.999993087010325 2.000008049984185 0  6.999996020140869 2.000006399168752 0  7.999998123556629 2.000003514949756 0  9 2 0  -9.000000000009988 4 0  -7.999993874656835 4.00001203614589 0  -6.999988842770231 4.000022473743451 0  -5.999985554736914 4.000029752433426 0  -4.999983912167573 4.000032396694079 0  -3.999994853449832 4.000030459287601 0  -3.000002192506197 4.000020973818929 0  -2.000004182235323 4.00000872488746 0  -1.000001536661127 3.999998828728438 0  3.642671647131706e-06 3.999994630507301 0  1.000009007051041 3.999997127175632 0  2.000012314763187 4.000004476772557 0  3.000011354068897 4.000014352235183 0  4.000005479565703 4.000023835964971 0  4.999996248542585 4.00002550983386 0  5.999995169048918 4.000023316824027 0  6.999995359137478 4.000017732038026 0  7.999997154980198 4.000009552915536 0  9 4 0  -9 6 0  -7.999987015451494 6.000025605971286 0  -6.99997827924823 6.000048439875316 0  -5.999977021010279 6.000065663143371 0  -4.999984133732775 6.000074593625182 0  -4.00000513951036 6.000060333541608 0  -3.000014592534069 6.000031199590513 0  -2.000010552288113 6.000000812779072 0  -1.000000996921185 5.999984077553098 0  8.439999178112451e-06 5.999980541080558 0  1.000016739432102 5.999985340427572 0  2.000023025407857 5.99999895467504 0  3.000025564201545 6.000021991822054 0  4.000021244752955 6.00004548786864 0  5.000004675158738 6.000056063247304 0  5.999992172716219 6.000052151207012 0  6.999988274986991 6.000039442727238 0  7.999991989522395 6.000021086489476 0  9 6 0  -9 8 0  -7.999963161128459 8.000050266882955 0  -6.99993780281938 8.000096851484493 0  -5.999935002941099 8.000134747820494 0  -4.999964102381457 8.000155710245282 0  -4.000004982064067 8.000090958936122 0  -2.999996208369973 8.000015200913575 0  -1.999979841138145 7.999979047363047 0  -0.9999781044410705 7.999975905719877 0  1.277814522343434e-05 7.999975147905564 0  1.000005638277498 7.999971526005694 0  2.000007826645476 7.999985033300757 0  3.000024471481124 8.000008127507343 0  4.000030094666959 8.000067077865589 0  4.999992413431411 8.000133785689151 0  5.999954755538861 8.000116174947236 0  6.999950739659673 8.000083747111217 0  7.999969638569135 8.000043543021741 0  9 8 0  -9 10 0  -7.999893370308175 10.00008966830048 0  -6.999807077594277 10.00018003375261 0  -5.999765373936636 10.00027159712813 0  -4.999801927489323 10.00036441746425 0  -3.999867524685886 10.00015345821433 0  -2.999854679223544 9.999972580291416 0  -1.999880056721697 10.00000678618168 0  -0.9999374043895981 10.00001783229009 0  2.124034836664456e-05 10.00002052068683 0  0.9999807820528541 10.00002001671638 0  1.999927636369875 10.00001993467419 0  2.999879918664401 9.999957923812081 0  3.999884992781829 10.00011357975427 0  4.999816544565135 10.00031941734633 0  5.999782743774005 10.00023948696025 0  6.99982152884118 10.00015916743391 0  7.999901427129053 10.00007936208715 0  9 10 0  -9 12 0  -7.999742164688622 12.00012630579726 0  -6.999497887110506 12.0002584661342 0  -5.999282505416058 12.00040349165699 0  -4.999114920419049 12.00057119464307 0  -3.999148981144933 12.00018349140492 0  -2.999116525240148 11.99979919548569 0  -1.999370954106213 11.99984942787645 0  -0.9996581228329229 11.99987868796383 0  4.129256046655764e-05 11.99988815058295 0  0.9997355913063086 11.99987732315038 0  1.99943120219057 11.9998420868611 0  2.999140499371286 11.99977182194803 0  3.999169050433693 12.00014415430155 0  4.999150998209792 12.00051918439797 0  5.999320262078085 12.00036439993933 0  6.99952780260058 12.00023255823318 0  7.999758479637354 12.00011342484152 0  9 12 0  -9 14 0  -7.999536588503723 14.00013955339513 0  -6.99907288954588 14.00028548673184 0  -5.998608067781442 14.00044474774087 0  -4.998139680316934 14.00062539347298 0  -3.998135499720982 14.00016777235408 0  -2.998130833601566 13.99970412460207 0  -1.99873115508857 13.99977601007802 0  -0.9993253077920412 13.99981877904386 0  8.181260456798196e-05 13.99983698023845 0  0.9994853090058123 13.99983231037145 0  1.998880348311154 13.99980441738866 0  2.998262749515729 13.99975168500206 0  3.998255872682306 14.00015672526273 0  4.998255499263911 14.00055879730311 0  5.998704398673372 14.00039763104468 0  6.999141370924176 14.00025516840507 0  7.999572060691981 14.00012468178713 0  9 14 0  -9 16 0  -7.999331969663316 16.00012730029952 0  -6.998652066710614 16.00025923666172 0  -5.997947384657752 16.0004005246295 0  -4.997202782216333 16.00055594307191 0  -3.997177440005148 16.00015822592592 0  -2.997200032926853 15.99976237966144 0  -1.998116514186621 15.99981920385678 0  -0.9989978133266283 15.99985725729413 0  0.0001368041686264491 15.99987739711272 0  0.9992690299310993 15.99988028926326 0  1.998380449591863 15.9998662027884 0  2.997451401208598 15.99983510050225 0  3.997423704144253 16.00016559371396 0  4.997448247740998 16.00049617201616 0  5.99813578286203 16.00035610517057 0  6.998779793288164 16.00022991466139 0  7.999396481565426 16.00011274009446 0  9 16 0  -9 18 0  -7.999174635290985 18.00009650803851 0  -6.998329996199078 18.00019559974318 0  -5.997445799211132 18.00029981049844 0  -4.996499697315716 18.00041154841502 0  -3.99646097622185 18.00015409970692 0  -2.996496660324788 17.99989678359232 0  -1.997643210854064 17.99993759447021 0  -0.9987342839697316 17.99996750998049 0  0.0002013215683842321 17.99998692218799 0  0.9991361852656573 17.99999629624931 0  1.998042918625635 17.99999615875102 0  2.996892848607476 17.99998715193782 0  3.99685428766826 18.00017245134068 0  4.996891507116165 18.00035690613808 0  5.997740746765373 18.0002591091913 0  6.998527182791311 18.00016861845342 0  7.999273402017485 18.00008306756357 0  9 18 0  -9 20 0  -7.999094207808188 20.00005537767957 0  -6.998165783888614 20.00011149041011 0  -5.997191223307044 20.00016899614413 0  -4.996145263358972 20.00022839010764 0  -3.996100867815005 20.00015214964758 0  -2.996143008631944 20.00007598340505 0  -1.997392485546104 20.00009965137033 0  -0.9985777984789592 20.00011986436091 0  0.0002687691051655946 20.00013668516344 0  0.9991161114023847 20.00015043087561 0  1.997933171248813 20.00016166590749 0  2.996687810860961 20.00017122340716 0  3.996645422893697 20.00017589700667 0  4.996687769701664 20.00017985641748 0  5.99759639650801 20.00013289748106 0  6.998435117347277 20.00008756695792 0  7.999228645955669 20.00004345879731 0  8.99999999996748 19.99999999999985 0  -9 22 0  -7.999104133044908 22.00001130257697 0  -6.998185750682685 22.00002180622213 0  -5.997221633821719 22.00003062612973 0  -4.996187150632183 22.00003670367667 0  -3.996143603149101 22.00015240914317 0  -2.996185470191673 22.00026811870681 0  -1.997399078864849 22.00027555554293 0  -0.9985491539410887 22.00028581684277 0  0.0003331018143505708 22.00029877681628 0  0.9992174527429128 22.00031463317489 0  1.998073726204836 22.00033390171258 0  2.996870910014735 22.00035742287307 0  3.996830861596159 22.00017689954743 0  4.996871993195779 21.9999957618349 0  5.997731163056844 22.00000017187049 0  6.998523518325327 22.00000162436368 0  7.999272447911649 22.00000124813442 0  9 22 0  -9 24 0  -7.999203946259239 23.99997042174822 0  -6.998388287554577 23.99993885390408 0  -5.997532899794892 23.99990321963065 0  -4.996616590014863 23.99986126920838 0  -3.996579002683853 24.00015421710466 0  -2.996615415961799 24.00044705863412 0  -1.997660436335254 24.0004401362307 0  -0.9986501257071924 24.00044094953962 0  0.0003890632940449087 24.00044925662807 0  0.9994314159893626 24.00046515751864 0  1.998451288990488 24.00048909267894 0  2.997422443263491 24.00052184594316 0  3.997389502149896 24.00017573045513 0  4.997424314130837 23.99982905019339 0  5.998132690129202 23.99987927797498 0  6.998785327253588 23.99992299775401 0  7.99940162583166 23.99996252498436 0  9 24 0  -9 26 0  -7.999381988704172 25.99993750104104 0  -6.998749381298746 25.99987216599802 0  -5.998087239367081 25.99980107214294 0  -4.997379911445251 25.99972112607414 0  -3.997352081199759 26.00015697900026 0  -2.99737911319869 26.00059264411492 0  -1.99814371650355 26.00057371823413 0  -0.9988668801111159 26.00056605005772 0  0.0004323970836568754 26.00056930230025 0  0.9997356227845831 26.00058348297859 0  1.999024383262487 26.00060894515547 0  2.998279908140695 26.00064638788677 0  3.998257551412277 26.00017278361669 0  4.998282339568703 25.99969869828207 0  5.998756663062871 25.99978442357391 0  6.999192179575068 25.99986114793967 0  7.999602349770135 25.9999320160704 0  9 26 0  -9 28 0  -7.999618198588641 27.99991592704477 0  -6.999228214296521 27.99982851210043 0  -5.99882169955242 27.99973432777811 0  -4.998389937646919 27.99962977742774 0  -3.998374335591093 28.00016021579249 0  -2.998389303628553 28.00069040473523 0  -1.998793335210435 28.00066221244421 0  -0.9991736515388727 28.00064740969076 0  0.0004599638892494132 28.00064557207542 0  1.000098011464274 28.00065661776997 0  1.999731070295492 28.00068080720532 0  2.999349594890321 28.00071874328598 0  3.999340043401835 28.00016855293584 0  4.999352436092875 27.99961797918256 0  5.999535321752512 27.99972558528744 0  6.99970007260
[...]
<PointData  Vectors="f_42"> 
<DataArray  type="Float64"  Name="f_42"  NumberOfComponents="3" format="ascii">0.0000000000000000e+00 0.0000000000000000e+00 0.0000000000000000e+00  0.0000000000000000e+00 0.0000000000000000e+00 0.0000000000000000e+00  0.0000000000000000e+00 0.0000000000000000e+00 0.0000000000000000e+00  0.0000000000000000e+00 0.0000000000000000e+00 0.0000000000000000e+00  0.0000000000000000e+00 0.0000000000000000e+00 0.0000000000000000e+00  0.0000000000000000e+00 0.0000000000000000e+00 0.0000000000000000e+00  0.0000000000000000e+00 0.0000000000000000e+00 0.0000000000000000e+00  0.0000000000000000e+00 0.0000000000000000e+00 0.0000000000000000e+00  0.0000000000000000e+00 0.0000000000000000e+00 0.0000000000000000e+00  0.0000000000000000e+00 0.0000000000000000e+00 0.0000000000000000e+00  0.0000000000000000e+00 0.0000000000000000e+00 0.0000000000000000e+00  0.0000000000000000e+00 0.0000000000000000e+00 0.0000000000000000e+00  0.0000000000000000e+00 0.0000000000000000e+00 0.0000000000000000e+00  0.0000000000000000e+00 0.0000000000000000e+00 0.0000000000000000e+00  0.0000000000000000e+00 0.0000000000000000e+00 0.0000000000000000e+00  0.0000000000000000e+00 0.0000000000000000e+00 0.0000000000000000e+00  0.0000000000000000e+00 0.0000000000000000e+00 0.0000000000000000e+00  0.0000000000000000e+00 0.0000000000000000e+00 0.0000000000000000e+00  0.0000000000000000e+00 0.0000000000000000e+00 0.0000000000000000e+00  0.0000000000000000e+00 0.0000000000000000e+00 0.0000000000000000e+00  3.6401891762540282e-06 4.8611205485706464e-06 0.0000000000000000e+00  7.5691479085682920e-06 9.1437974126962737e-06 0.0000000000000000e+00  1.2493374954629340e-05 1.2379962101425175e-05 0.0000000000000000e+00  2.0052977968014022e-05 1.4368012977604121e-05 0.0000000000000000e+00  1.2342625289849875e-05 1.0651732190116341e-05 0.0000000000000000e+00  4.4422851646953588e-06 7.2378380939969819e-06 0.0000000000000000e+00  5.2490075335701181e-07 4.0758809257348209e-06 0.0000000000000000e+00  -2.6036458142669383e-07 1.5541584464055277e-06 0.0000000000000000e+00  9.4355046393763565e-07 3.6983858612827799e-07 0.0000000000000000e+00  2.3968038549194359e-06 9.2191715510340598e-07 0.0000000000000000e+00  2.4503129215651724e-06 2.9895313039911303e-06 0.0000000000000000e+00  4.8238182536694882e-08 5.4518264535415278e-06 0.0000000000000000e+00  -5.0050138236312109e-06 7.8136779869783974e-06 0.0000000000000000e+00  -1.2094876684905433e-05 7.8965971681157587e-06 0.0000000000000000e+00  -6.9129896764185638e-06 8.0499841853660238e-06 0.0000000000000000e+00  -3.9798591356811020e-06 6.3991687504255934e-06 0.0000000000000000e+00  -1.8764433833164507e-06 3.5149497555464144e-06 0.0000000000000000e+00  0.0000000000000000e+00 0.0000000000000000e+00 0.0000000000000000e+00  -9.9873901165806172e-12 0.0000000000000000e+00 0.0000000000000000e+00  6.1253431724206331e-06 1.2036145887735748e-05 0.0000000000000000e+00  1.1157229773827696e-05 2.2473743450176130e-05 0.0000000000000000e+00  1.4445263084236442e-05 2.9752433424927577e-05 0.0000000000000000e+00  1.6087832421501358e-05 3.2396694079757759e-05 0.0000000000000000e+00  5.1465501677300519e-06 3.0459287601318816e-05 0.0000000000000000e+00  -2.1925061982391521e-06 2.0973818931465952e-05 0.0000000000000000e+00  -4.1822353225024900e-06 8.7248874575260149e-06 0.0000000000000000e+00  -1.5366611262640973e-06 -1.1712715625631550e-06 0.0000000000000000e+00  3.6426716471317060e-06 -5.3694926980716230e-06 0.0000000000000000e+00  9.0070510415513603e-06 -2.8728243601357473e-06 0.0000000000000000e+00  1.2314763186677810e-05 4.4767725572715210e-06 0.0000000000000000e+00  1.1354068898083273e-05 1.4352235181533015e-05 0.0000000000000000e+00  5.4795657005500671e-06 2.3835964971991349e-05 0.0000000000000000e+00  -3.7514574199573126e-06 2.5509833861865292e-05 0.0000000000000000e+00  -4.8309510896662464e-06 2.3316824030137933e-05 0.0000000000000000e+00  -4.6408625190489653e-06 1.7732038027003600e-05 0.0000000000000000e+00  -2.8450197937443632e-06 9.5529155359045513e-06 0.0000000000000000e+00  0.0000000000000000e+00 0.0000000000000000e+00 0.0000000000000000e+00  0.0000000000000000e+00 0.0000000000000000e+00 0.0000000000000000e+00  1.2984548490309350e-05 2.5605971280850273e-05 0.0000000000000000e+00  2.1720751772588200e-05 4.8439875319365914e-05 0.0000000000000000e+00  2.2978989711519353e-05 6.5663143375290018e-05 0.0000000000000000e+00  1.5866267226139024e-05 7.4593625187270330e-05 0.0000000000000000e+00  -5.1395103591513323e-06 6.0333541613791366e-05 0.0000000000000000e+00  -1.4592534067678005e-05 3.1199590516004019e-05 0.0000000000000000e+00  -1.0552288112284066e-05 8.1277906298387254e-07 0.0000000000000000e+00  -9.9692118490329533e-07 -1.5922446900975713e-05 0.0000000000000000e+00  8.4399991781124511e-06 -1.9458919447201364e-05 0.0000000000000000e+00  1.6739432101312193e-05 -1.4659572424288723e-05 0.0000000000000000e+00  2.3025407858696442e-05 -1.0453249635340079e-06 0.0000000000000000e+00  2.5564201543428493e-05 2.1991822057456757e-05 0.0000000000000000e+00  2.1244752950803376e-05 4.5487868641528125e-05 0.0000000000000000e+00  4.6751587422111486e-06 5.6063247305523894e-05 0.0000000000000000e+00  -7.8272837880206012e-06 5.2151207013656735e-05 0.0000000000000000e+00  -1.1725013011238500e-05 3.9442727236799771e-05 0.0000000000000000e+00  -8.0104776049369000e-06 2.1086489476143812e-05 0.0000000000000000e+00  0.0000000000000000e+00 0.0000000000000000e+00 0.0000000000000000e+00  0.0000000000000000e+00 0.0000000000000000e+00 0.0000000000000000e+00  3.6838871528001862e-05 5.0266882955187896e-05 0.0000000000000000e+00  6.2197180617954499e-05 9.6851484490834006e-05 0.0000000000000000e+00  6.4997058900956108e-05 1.3474782049515899e-04 0.0000000000000000e+00  3.5897618541090064e-05 1.5571024529046699e-04 0.0000000000000000e+00  -4.9820640652856810e-06 9.0958936129142078e-05 0.0000000000000000e+00  3.7916300265908996e-06 1.5200913573086677e-05 0.0000000000000000e+00  2.0158861855146690e-05 -2.0952636952084669e-05 0.0000000000000000e+00  2.1895558928748126e-05 -2.4094280123231763e-05 0.0000000000000000e+00  1.2778145223434342e-05 -2.4852094440145654e-05 0.0000000000000000e+00  5.6382774996495062e-06 -2.8473994322849619e-05 0.0000000000000000e+00  7.8266454768730597e-06 -1.4966699255228614e-05 0.0000000000000000e+00  2.4471481122128455e-05 8.1275073478227758e-06 0.0000000000000000e+00  3.0094666959587927e-05 6.7077865591622367e-05 0.0000000000000000e+00  -7.5865685986583387e-06 1.3378568914389964e-04 0.0000000000000000e+00  -4.5244461139464351e-05 1.1617494723663107e-04 0.0000000000000000e+00  -4.9260340325537539e-05 8.3747111210237006e-05 0.0000000000000000e+00  -3.0361430870639954e-05 4.3543021742754860e-05 0.0000000000000000e+00  0.0000000000000000e+00 0.0000000000000000e+00 0.0000000000000000e+00  0.0000000000000000e+00 0.0000000000000000e+00 0.0000000000000000e+00  1.0662969182545533e-04 8.9668300485030680e-05 0.0000000000000000e+00  1.9292240572651350e-04 1.8003375261957855e-04 0.0000000000000000e+00  2.3462606336188064e-04 2.7159712813083862e-04 0.0000000000000000e+00  1.9807251067215103e-04 3.6441746425012404e-04 0.0000000000000000e+00  1.3247531411856157e-04 1.5345821433148602e-04 0.0000000000000000e+00  1.4532077645465407e-04 -2.7419708574887526e-05 0.0000000000000000e+00  1.1994327829837393e-04 6.7861816858705515e-06 0.0000000000000000e+00  6.2595610401676896e-05 1.7832290082440942e-05 0.0000000000000000e+00  2.1240348366644562e-05 2.0520686820933368e-05 0.0000000000000000e+00  -1.9217947143561073e-05 2.0016716386496555e-05 0.0000000000000000e+00  -7.2363630121756190e-05 1.9934674182208093e-05 0.0000000000000000e+00  -1.2008133560134770e-04 -4.2076187925115914e-05 0.0000000000000000e+00  -1.1500721816751894e-04 1.1357975426762884e-04 0.0000000000000000e+00  -1.8345543485937755e-04 3.1941734631685340e-04 0.0000000000000000e+00  -2.1725622598621236e-04 2.3948696025024460e-04 0.0000000000000000e+00  -1.7847115882332849e-04 1.5916743390815953e-04 0.0000000000000000e+00  -9.8572870952003366e-05 7.9362087152364498e-05 0.0000000000000000e+00  0.0000000000000000e+00 0.0000000000000000e+00 0.0000000000000000e+00  0.0000000000000000e+00 0.0000000000000000e+00 0.0000000000000000e+00  2.5783531137850397e-04 1.2630579725959569e-04 0.0000000000000000e+00  5.0211288949491119e-04 2.5846613419455244e-04 0.0000000000000000e+00  7.1749458393931774e-04 4.0349165701162476e-04 0.0000000000000000e+00  8.8507958095578412e-04 5.7119464307734942e-04 0.0000000000000000e+00  8.5101885506703274e-04 1.8349140491820962e-04 0.0000000000000000e+00  8.8347475985138806e-04 -2.0080451431356175e-04 0.0000000000000000e+00  6.2904589378782506e-04 -1.5057212354947970e-04 0.0000000000000000e+00  3.4187716707812573e-04 -1.2131203617388390e-04 0.0000000000000000e+00  4.1292560466557642e-05 -1.1184941704003428e-04 0.0000000000000000e+00  -2.6440869369288541e-04 -1.2267684962380605e-04 0.0000000000000000e+00  -5.6879780943114961e-04 -1.5791313890186666e-04 0.0000000000000000e+00  -8.5950062871383362e-04 -2.2817805199638433e-04 0.0000000000000000e+00  -8.3094956630342266e-04 1.4415430156005239e-04 0.0000000000000000e+00  -8.4900179021552328e-04 5.1918439798353871e-04 0.0000000000000000e+00  -6.7973792191482901e-04 3.6439993934250548e-04 0.0000000000000000e+00  -4.7219739941473961e-04 2.3255823318111160e-04 0.0000000000000000e+00  -2.4152036265233568e-04 1.1342484152554886e-04 0.0000000000000000e+00  0.0000000000000000e+00 0.0000000000000000e+00 0.0000000000000000e+00  0.0000000000000000e+00 0.0000000000000000e+00 0.0000000000000000e+00  4.6341149626316148e-04 1.3955339512207565e-04 0.0000000000000000e+00  9.2711045411759800e-04 2.8548673183092360e-04 0.0000000000000000e+00  1.3919322185560650e-03 4.4474774086788625e-04 0.0000000000000000e+00  1.8603196830619096e-03 6.2539347297688294e-04 0.0000000000000000e+00  1.8645002790157769e-03 1.6777235409621733e-04 0.0000000000000000e+00  1.8691663984350853e-03 -2.9587539793052802e-04 0.0000000000000000e+00  1.2688449114316551e-03 -2.2398992199482946e-04 0.0000000000000000e+00  6.7469220796038184e-04 -1.8122095615057541e-04 0.0000000000000000e+00  8.1812604567981962e-05 -1.6301976155684981e-04 0.0000000000000000e+00  -5.1469099418908430e-04 -1.6768962853943458e-04 0.0000000000000000e+00  -1.1196516888422809e-03 -1.9558261134066215e-04 0.0000000000000000e+00  -1.7372504842702214e-03 -2.4831499795025089e-04 0.0000000000000000e+00  -1.7441273177000189e-03 1.5672526271634553e-04 0.0000000000000000e+00  -1.7445007360842833e-03 5.5879730311257550e-04 0.0000000000000000e+00  -1.2956013266296022e-03 3.9763104466910664e-04 0.0000000000000000e+00  -8.5862907582386874e-04 2.5516840505177164e-04 0.0000000000000000e+00  -4.2793930801630431e-04 1.2468178713283655e-04 0.0000000000000000e+00  0.0000000000000000e+00 0.0000000000000000e+00 0.0000000000000000e+00  0.0000000000000000e+00 0.0000000000000000e+00 0.0000000000000000e+00  6.6803033669993596e-04 1.2730029951903420e-04 0.0000000000000000e+00  1.3479332893831819e-03 2.5923666172086168e-04 0.0000000000000000e+00  2.0526153422491893e-03 4.0052462950604812e-04 0.0000000000000000e+00  2.7972177836654883e-03 5.5594307190565801e-04 0.0000000000000000e+00  2.8225599948524180e-03 1.5822592594142616e-04 0.0000000000000000e+00  2.7999670731468657e-03 -2.3762033856091554e-04 0.0000000000000000e+00  1.8834858133776439e-03 -1.8079614322827665e-04 0.0000000000000000e+00  1.0021866733709109e-03 -1.4274270587744678e-04 0.0000000000000000e+00  1.3680416862644907e-04 -1.2260288728290161e-04 0.0000000000000000e+00  -7.3097006890193164e-04 -1.1971073673983017e-04 0.0000000000000000e+00  -1.6195504081391694e-03 -1.3379721160698108e-04 0.0000000000000000e+00  -2.5485987913975794e-03 -1.6489949775631179e-04 0.0000000000000000e+00  -2.5762958557481019e-03 1.6559371398265090e-04 0.0000000000000000e+00  -2.5517522589982812e-03 4.9617201614771730e-04 0.0000000000000000e+00  -1.8642171379662541e-03 3.5610517058537298e-04 0.0000000000000000e+00  -1.2202067118386938e-03 2.2991466139693839e-04 0.0000000000000000e+00  -6.0351843457122107e-04 1.1274009445600875e-04 0.0000000000000000e+00  0.0000000000000000e+00 0.0000000000000000e+00 0.0000000000000000e+00  0.0000000000000000e+00 0.0000000000000000e+00 0.0000000000000000e+00  8.2536470902651738e-04 9.6508038512833078e-05 0.0000000000000000e+00  1.6700038009217271e-03 1.9559974318723893e-04 0.0000000000000000e+00  2.5542007888689172e-03 2.9981049843945059e-04 0.0000000000000000e+00  3.5003026842832614e-03 4.1154841504593753e-04 0.0000000000000000e+00  3.5390237781497912e-03 1.5409970690045521e-04 0.0000000000000000e+00  3.5033396752126278e-03 -1.0321640766674896e-04 0.0000000000000000e+00  2.3567891459372733e-03 -6.2405529789583781e-05 0.0000000000000000e+00  1.2657160302657784e-03 -3.2490019513889008e-05 0.0000000000000000e+00  2.0132156838423214e-04 -1.3077812000714399e-05 0.0000000000000000e+00  -8.6381473434170904e-04 -3.7037506814648794e-06 0.0000000000000000e+00  -1.9570813743683439e-03 -3.8412490016314444e-06 0.0000000000000000e+00  -3.1071513925235105e-03 -1.2848062202622808e-05 0.0000000000000000e+00  -3.1457123317370351e-03 1.7245134067571765e-04 0.0000000000000000e+00  -3.1084928838333577e-03 3.5690613806017775e-04 0.0000000000000000e+00  -2.2592532346200084e-03 2.5910919128421047e-04 0.0000000000000000e+00  -1.4728172086831009e-03 1.6861845342824459e-04 0.0000000000000000e+00  -7.2659798251248754e-04 8.3067563582268171e-05 0.0000000000000000e+00  0.0000000000000000e+00 0.0000000000000000e+00 0.0000000000000000e+00  0.0000000000000000e+00 0.0000000000000000e+00 0.0000000000000000e+00  9.0579219182238165e-04 5.5377679560189474e-05 0.0000000000000000e+00  1.8342161113874900e-03 1.1149041010994360e-04 0.0000000000000000e+00  2.8087766929518385e-03 1.6899614414736319e-04 0.0000000000000000e+00  3.8547366410258857e-03 2.2839010765305848e-04 0.0000000000000000e+00  3.8991321849968269e-03 1.5214964758989853e-04 0.0000000000000000e+00  3.8569913680525886e-03 7.5983405049791702e-05 0.0000000000000000e+00  2.6075144538962140e-03 9.9651370335292921e-05 0.0000000000000000e+00  1.4222015210403338e-03 1.1986436090614746e-04 0.0000000000000000e+00  2.6876910516559458e-04 1.3668516346442035e-04 0.0000000000000000e+00  -8.8388859761466261e-04 1.5043087561775111e-04 0.0000000000000000e+00  -2.0668287511833839e-03 1.6166590748331190e-04 0.0000000000000000e+00  -3.3121891390370298e-03 1.7122340712467189e-04 0.0000000000000000e+00  -3.3545771062996358e-03 1.7589700664926439e-04 0.0000000000000000e+00  -3.3122302983368867e-03 1.7985641749249386e-04 0.0000000000000000e+00  -2.4036034919884377e-03 1.3289748103014414e-04 0.0000000000000000e+00  -1.5648826527247012e-03 8.7566957917295204e-05 0.0000000000000000e+00  -7.7135404434711021e-04 4.3458797281064380e-05 0.0000000000000000e+00  -3.2518088513632983e-11 -1.3848083296967013e-13 0.0000000000000000e+00  0.0000000000000000e+00 0.0000000000000000e+00 0.0000000000000000e+00  8.9586695509568347e-04 1.1302576978141020e-05 0.0000000000000000e+00  1.8142493173094144e-03 2.1806222129860747e-05 0.0000000000000000e+00  2.7783661782772662e-03 3.0626129733472142e-05 0.0000000000000000e+00  3.8128493678205111e-03 3.6703676669145132e-05 0.0000000000000000e+00  3.8563968508969425e-03 1.5240914319485617e-04 0.0000000000000000e+00  3.8145298083251331e-03 2.6811870681843432e-04 0.0000000000000000e+00  2.6009211351548413e-03 2.7555554296509544e-04 0.0000000000000000e+00  1.4508460589103096e-03 2.8581684278149302e-04 0.0000000000000000e+00  3.3310181435057084e-04 2.9877681627072668e-04 0.0000000000000000e+00  -7.8254725708711394e-04 3.1463317486529730e-04 0.0000000000000000e+00  -1.9262737951651527e-03 3.3390171256544139e-04 0.0000000000000000e+00  -3.1290899852658141e-03 3.5742287305365528e-04 0.0000000000000000e+00  -3.1691384038348108e-03 1.7689954744137609e-04 0.0000000000000000e+00  -3.1280068042215635e-03 -4.2381650940136984e-06 0.0000000000000000e+00  -2.2688369431606431e-03 1.7187049955333806e-07 0.0000000000000000e+00  -1.4764816746779738e-03 1.6243636886679330e-06 0.0000000000000000e+00  -7.2755208835317581e-04 1.2481344354002034e-06 0.0000000000000000e+00  0.0000000000000000e+00 0.0000000000000000e+00 0.0000000000000000e+00  0.0000000000000000e+00 0.0000000000000000e+00 0.0000000000000000e+00  7.9605374077626684e-04 -2.9578251782049268e-05 0.0000000000000000e+00  1.6117124454223491e-03 -6.1146095902821722e-05 0.0000000000000000e+00  2.4671002051005393e-03 -9.6780369347304780e-05 0.0000000000000000e+00  3.3834099851443437e-03 -1.3873079163972490e-04 0.0000000000000000e+00  3.4209973161467198e-03 1.5421710467531567e-04 0.0000000000000000e+00  3.3845840382002203e-03 4.4705863409524020e-04 0.0000000000000000e+00  2.3395636647473451e-03 4.4013623068163183e-04 0.0000000000000000e+00  1.3498742928071414e-03 4.4094953960898168e-04 0.0000000000000000e+00  3.8906329404490869e-04 4.4925662806942951e-04 0.0000000000000000e+00  -5.6858401063931562e-04 4.6515751862301758e-04 0.0000000000000000e+00  -1.5487110095076312e-03 4.8909267896730935e-04 0.0000000000000000e+00  -2.5775567365098214e-03 5.2184594316470427e-04 0.0000000000000000e+00  -2.6104978501148486e-03 1.7573045513284797e-04 0.0000000000000000e+00  -2.5756858691641945e-03 -1.7094980662570898e-04 0.0000000000000000e+00  -1.8673098707973842e-03 -1.2072202500636913e-04 0.0000000000000000e+00  -1.2146727464177201e-03 -7.7002246004698131e-05 0.0000000000000000e+00  -5.9837416833428568e-04 -3.7475015639923096e-05 0.0000000000000000e+00  0.0000000000000000e+00 0.0000000000000000e+00 0.0000000000000000e+00  0.0000000000000000e+00 0.0000000000000000e+00 0.0000000000000000e+00  6.1801129581902988e-04 -6.2498958956789285e-05 0.0000000000000000e+00  1.2506187012516492e-03 -1.2783400198293564e-04 0.0000000000000000e+00  1.9127606329223965e-03 -1.9892785706014353e-04 0.0000000000000000e+00  2.6200885547544754e-03 -2.7887392585966553e-04 0.0000000000000000e+00  2.6479188002383061e-03 1.5697900026688646e-04 0.0000000000000000e+00  2.6208868013120326e-03 5.9264411493034760e-04 0.0000000000000000e+00  1.8562834964482449e-03 5.7371823413775798e-04 0.0000000000000000e+00  1.1331198888848263e-03 5.6605005773904447e-04 0.0000000000000000e+00  4.3239708365687537e-04 5.6930230025642643e-04 0.0000000000000000e+00  -2.6437721541643609e-04 5.8348297860573006e-04 0.0000000000000000e+00  -9.7561673751256903e-04 6.0894515544241757e-04 0.0000000000000000e+00  -1.7200918593061319e-03 6.4638788677431923e-04 0.0000000000000000e+00  -1.7424485877192359e-03 1.7278361670212017e-04 0.0000000000000000e+00  -1.7176604313003398e-03 -3.0130171791105625e-04 0.0000000000000000e+00  -1.2433369371322972e-03 -2.1557642610454107e-04 0.0000000000000000e+00  -8.0782042493459055e-04 -1.3885206032023743e-04 0.0000000000000000e+00  -3.9765022986080171e-04 -6.7983929576197392e-05 0.0000000000000000e+00  0.0000000000000000e+00 0.0000000000000000e+00 0.0000000000000000e+00  0.0000000000000000e+00 0.0000000000000000e+00 0.0000000000000000e+00  3.8180141135945195e-04 -8.4072955216568662e-05 0.0000000000000000e+00  7.7178570347839835e-04 -1.7148789956433552e-04 0.0000000000000000e+00  1.1783004475765784e-03 -2.6567222188845629e-04 0.0000000000000000e+00  1.6100623530822616e-03 -3.7022257227114840e-04 0.0000000000000000e+00  1.6256644089013208e-03 1.6021579248289773e-04 0.0000000000000000e+00  1.6106963714475210e-03 6.9040473520416874e-04 0.0000000000000000e+00  1.2066647895632191e-03 6.6221244417073786e-04 0.0000000000000000e+00  8.2634846112705307e-04 6.4740969075951691e-04 0.0000000000000000e+00  4.5996388924941323e-04 6.4557207539847280e-04 0.0000000000000000e+00  9.8011464273474843e-05 6.5661776995481677e-04 0.0000000000000000e+00  -2.6892970450688729e-04 6.8080720532704320e-04 0.0000000000000000e+00  -6.5040510967450695e-04 7.1874328596550105e-04 0.0000000000000000e+00  -6.5995659816636763e-04 1.6855293584345339e-04 0.0000000000000000e+00  -6.4756390712771125e-04 -3.8202081743481640e-04 0.0000000000000000e+00  -4.6467824748919466e-04 -2.7441471254571010e-04 0.0000