<?xml version="1.0"?>
<VTKFile type="UnstructuredGrid"  version="0.1"  >
<UnstructuredGrid>
<Piece  NumberOfPoints="589" NumberOfCells="1080">
<Points>
<DataArray  type="Float64"  NumberOfComponents="3"  format="ascii">-9 0 0  -8 0 0  -7 0 0  -6 0 0  -5 0 0  -4 0 0  -3 0 0  -2 0 0  -1 0 0  0 0 0  1 0 0  2 0 0  3 0 0  4 0 0  5 0 0  6 0 0  7 0 0  8 0 0  9 0 0  -9 2 0  -8.000001638846918 1.999998031650405 0  -7.000003471055203 1.999996241941553 0  -6.000005861942576 1.999994768208851 0  -5.000009572351065 1.999993645625979 0  -4.000006389538045 1.999995426150767 0  -3.000002964820988 1.999996776396669 0  -2.00000106578841 1.999997895848033 0  -1.000000274323485 1.999998769558626 0  -1.704272155127018e-07 1.99999915091557 0  0.9999998761991453 1.999998904257359 0  2.000000470720658 1.99999808746896 0  3.000002035285478 1.999997050442128 0  4.000004727418692 1.99999586866347 0  5.000008482364382 1.9999952105668 0  6.00000514503142 1.999995639261647 0  7.000003030805165 1.999996728349912 0  8.000001428711164 1.999998254177131 0  9 2 0  -9 4 0  -8.000002504240651 3.999995348757806 0  -7.000004707390103 3.999991219994553 0  -6.000006445790195 3.999988131827607 0  -5.000007778631896 3.999986593353454 0  -4.000003530102739 3.999987258163674 0  -3.000000437793799 3.999990535004966 0  -1.999999098890978 3.99999478857299 0  -0.9999992834865774 3.999998168812609 0  -3.246095249797127e-07 3.999999543336826 0  0.9999985881123747 3.999998535318488 0  1.999998255531913 3.99999572555233 0  2.999999467286706 3.999991887429352 0  4.000002427182718 3.999988019758693 0  5.000006456869583 3.999986635718007 0  6.00000539761676 3.999988636962119 0  7.000004013070089 3.999991709764443 0  8.000002163880032 3.999995628392609 0  9 4 0  -9 6 0  -8.000004573979771 5.999990576029099 0  -7.000007802725063 5.999982035733193 0  -6.000008651883578 5.999975296736985 0  -5.000006811876909 5.999971258360709 0  -3.99999918283161 5.999975888871529 0  -2.999995371886788 5.99998560460546 0  -1.999995950575261 5.999995787062398 0  -0.9999984089843773 6.000001489928303 0  -9.153528693594123e-07 6.000002700691903 0  0.9999969180029932 6.000000875014681 0  1.999995459897032 5.999995836135734 0  2.999995315983944 5.999987389455198 0  3.999997567085518 5.999978651330377 0  5.000004087271665 5.99997440743538 0  6.000006951386459 5.999977348489735 0  7.00000685389452 5.999983307949008 0  8.000004157781243 5.999991190764232 0  9 6 0  -9 8 0  -8.000012024026201 7.999982268932764 0  -7.000020416304004 7.999965646624769 0  -6.000021614620223 7.999951659504458 0  -5.000012461880251 7.999942861850759 0  -3.99999855255858 7.999964004999768 0  -3.000000341840952 7.999988867161154 0  -2.000004759374077 8.000001141495124 0  -1.000004589808642 8.000002781798228 0  -1.03923051548408e-06 8.000003269964143 0  1.000001807209448 8.000004348365442 0  2.000001443905408 7.999999273370347 0  2.999996326466067 7.999990449925303 0  3.999995271126743 7.999969362500813 0  5.00000906715768 7.999945747755083 0  6.000020351371876 7.999953986852494 0  7.000020088951803 7.999967213065639 0  8.000011998126515 7.999983047733213 0  9 8 0  -9 10 0  -8.000033999538946 9.999969528057241 0  -7.000061804153455 9.999938718687581 0  -6.000075980005644 9.999907267561868 0  -5.000066100622132 9.999874943764395 0  -4.0000446716683 9.999941688876712 0  -3.000046804637256 9.999999331843751 0  -2.000036929912137 9.999990314590116 0  -1.000017524841892 9.999987423615069 0  -2.971634524489687e-06 9.99998673210812 0  1.000011453838209 9.999986718898176 0  2.000030233068766 9.999986140673007 0  3.000047542172469 10.00000553143291 0  4.000046868074865 9.999951423136444 0  5.000070712907465 9.999880642031169 0  6.000079934785636 9.999910679190641 0  7.000064635666073 9.999940685756828 0  8.00003546635762 9.999970435213838 0  9 10 0  -9 12 0  -8.000080747943784 11.99995813944184 0  -7.00015769603892 11.99991436202094 0  -6.000226544724539 11.99986637357615 0  -5.000281992781367 11.99981097182275 0  -4.000271554126688 11.99993020036961 0  -3.000280292543783 12.00004826351162 0  -2.000192277726436 12.00003387462986 0  -1.000095833296429 12.00002604191907 0  3.769647401671995e-06 12.00002435794976 0  1.000104445554558 12.00002903978448 0  2.000204547658258 12.00004153706594 0  3.000300425675189 12.00006551840861 0  4.000291593139559 11.99993922364976 0  5.000298018052911 11.99981200090693 0  6.000237587406758 11.99986749936121 0  7.00016465563552 11.9999151902969 0  8.000084118083501 11.99995856352203 0  9 12 0  -9 14 0  -8.000142682067169 13.99995442104778 0  -7.00028596385131 13.99990685421503 0  -6.000430675056206 13.99985513972804 0  -5.000578251144068 13.9997967855655 0  -4.000580013770966 13.99993316681302 0  -3.000579745270561 14.00007137095624 0  -2.000381369691965 14.00005121538165 0  -1.000186787339068 14.00004006986252 0  6.22170851528627e-06 14.0000365247525 0  1.000199751500603 14.00004010399522 0  2.000395795107683 14.00005100469539 0  3.000596107539616 14.00006983848982 0  4.000598940063911 13.99993344976029 0  5.000599443690113 13.99979800841173 0  6.000445211892065 13.99985556030824 0  7.000295079573936 13.99990697205121 0  8.000147079911327 13.99995444230629 0  9 14 0  -9 16 0  -8.00020219907401 15.99995865590035 0  -7.000408484084931 15.99991594069631 0  -6.00062329789915 15.99987047006038 0  -5.00085183128602 15.99982086262728 0  -4.000859964967376 15.99993418235075 0  -3.000851551663421 16.00004683618414 0  -2.000555335646868 16.00003253041078 0  -1.000271468985817 16.00002370775227 0  6.591037073637669e-06 16.00002020453725 0  1.000285023127634 16.00002189256467 0  2.000570011918024 16.00002875009181 0  3.000868149143496 16.00004082953725 0  4.000877565391702 15.99992917385934 0  5.000869963960537 15.99981742562872 0  6.000636384905322 15.99986818839739 0  7.000416940429036 15.99991452441601 0  8.000206343324859 15.99995797378461 0  9 16 0  -9 18 0  -8.000245351896623 17.99996837547164 0  -7.000496856879999 17.99993605046572 0  -6.000760988709991 17.99990235007629 0  -5.00104486761818 17.99986665826518 0  -4.001056741058583 17.99993371163018 0  -3.001044792560617 18.00000067333328 0  -2.000679962370561 17.99999192368446 0  -1.000332951483815 17.99998607926653 0  5.470707110106643e-06 17.99998313064631 0  1.000344092141379 17.99998301412479 0  2.000691688482163 17.99998561819711 0  3.001057447109983 17.99999076458088 0  4.001070061361244 17.9999258699281 0  5.001058509979484 17.99986119499298 0  6.000770960605423 17.9998985271918 0  7.00050337471417 17.99993362566341 0  8.000248570410598 17.99996719861941 0  9 18 0  -9 20 0  -8.000263875386404 19.99998089644528 0  -7.000534688871324 19.9999616618241 0  -6.000819636271027 19.99994219625991 0  -5.001126428737136 19.99992246359711 0  -4.001139633531774 19.999932841395 0  -3.001126273544788 19.99994314152868 0  -2.000733375370481 19.99993970320318 0  -1.00036010907082 19.99993687509516 0  3.552023505065737e-06 19.99993473596174 0  1.000367288690819 19.99993326057577 0  2.000740775168764 19.99993232355071 0  3.00113401977096 19.99993169251568 0  4.001147574654462 19.99992393447464 0  5.001134502281888 19.99991633299175 0  6.000825623812971 19.99993780136878 0  7.000538645874311 19.99995882909448 0  8.000265842907092 19.99997950921734 0  8.999999999997575 20.0000000000042 0  -9 22 0  -8.000254631314863 21.99999394110586 0  -7.000515952980336 21.99998819646906 0  -6.000790849786863 21.99998311028005 0  -5.001086593673843 21.99997908701162 0  -4.001099242271157 21.99993155384233 0  -3.001086494138545 21.9998839570301 0  -2.000708323323147 21.99988504337066 0  -1.000348875382335 21.99988491692219 0  1.330971827876842e-06 21.99988368821241 0  1.000351515311047 21.99988135522658 0  2.000710891542178 21.99987780593846 0  3.001088924083598 21.99987281691526 0  4.001101534607363 21.99992294492987 0  5.001088835098303 21.99997318141317 0  6.000792630302152 21.99997883735959 0  7.000517184357602 21.99998542221833 0  8.000255259676223 21.99999257629665 0  9 22 0  -9 24 0  -8.000218610895557 24.00000572848204 0  -7.000442884631078 24.00001209693306 0  -6.000678621940964 24.00001977197008 0  -5.00093189651849 24.00002947354963 0  -4.000942611475269 23.99993002413021 0  -3.000931932117742 23.99983053821892 0  -2.000608439157975 23.99983523140556 0  -1.000300702795014 23.99983736472377 0  -8.005677593318202e-07 23.99983705448803 0  1.000299004856485 23.99983431178695 0  2.000606445537738 23.99982904349676 0  3.000929428203694 23.99982105225252 0  4.000939717073679 23.99992273929903 0  5.000928835495788 24.00002451235503 0  6.000676550209514 24.00001615692549 0  7.000441607384308 24.00000973788523 0  8.000218002803788 24.00000456436191 0  9 24 0  -9 26 0  -8.000159922023892 26.0000149560625 0  -7.000323928749244 26.00003077094324 0  -6.000496193092534 26.00004832709363 0  -5.00068106090334 26.00006855412609 0  -4.000688874662371 25.99992840454612 0  -3.00068129750308 25.99978824086412 0  -2.000445585171682 25.99979565193973 0  -1.000221219357846 25.99979958099779 0  -2.542500565791063e-06 25.99980014481555 0  1.000215984065103 25.99979736470894 0  2.000439893757695 25.99979116654258 0  3.000674828500771 25.99978138128767 0  4.000681842025784 25.99992316192405 0  5.000673784376197 26.00006500558034 0  6.000491050131123 26.00004573069404 0  7.000320647153797 26.00002907141465 0  8.000158324732421 26.00001411580381 0  9 26 0  -9 28 0  -8.000084875748588 28.00002074856467 0  -7.000171907707083 28.00004247990604 0  -6.000263296111917 28.00006619847584 0  -5.000361325440124 28.0000929518067 0  -4.000365629500412 27.99992682846656 0  -3.000361814530887 27.99976071257109 0  -2.000237400196392 27.99976999501296 0  -1.000119005148497 27.99977525256217 0  -3.680880013337065e-06 27.99977660504567 0  1.000111460681363 27.99977408388661 0  2.000229302324189 27.9997676317607 0  3.000352776730862 27.9997571032833 0  4.000355927138355 27.9999240806266 0  5.000351336550414 28.00009110273077 0  6.00025617371224 28.00006484231145 0  7.000167332670585 28.00004159062184 0  8.00008263962
[...]
<PointData  Vectors="f_42"> 
<DataArray  type="Float64"  Name="f_42"  NumberOfComponents="3" format="ascii">0.0000000000000000e+00 0.0000000000000000e+00 0.0000000000000000e+00  0.0000000000000000e+00 0.0000000000000000e+00 0.0000000000000000e+00  0.0000000000000000e+00 0.0000000000000000e+00 0.0000000000000000e+00  0.0000000000000000e+00 0.0000000000000000e+00 0.0000000000000000e+00  0.0000000000000000e+00 0.0000000000000000e+00 0.0000000000000000e+00  0.0000000000000000e+00 0.0000000000000000e+00 0.0000000000000000e+00  0.0000000000000000e+00 0.0000000000000000e+00 0.0000000000000000e+00  0.0000000000000000e+00 0.0000000000000000e+00 0.0000000000000000e+00  0.0000000000000000e+00 0.0000000000000000e+00 0.0000000000000000e+00  0.0000000000000000e+00 0.0000000000000000e+00 0.0000000000000000e+00  0.0000000000000000e+00 0.0000000000000000e+00 0.0000000000000000e+00  0.0000000000000000e+00 0.0000000000000000e+00 0.0000000000000000e+00  0.0000000000000000e+00 0.0000000000000000e+00 0.0000000000000000e+00  0.0000000000000000e+00 0.0000000000000000e+00 0.0000000000000000e+00  0.0000000000000000e+00 0.0000000000000000e+00 0.0000000000000000e+00  0.0000000000000000e+00 0.0000000000000000e+00 0.0000000000000000e+00  0.0000000000000000e+00 0.0000000000000000e+00 0.0000000000000000e+00  0.0000000000000000e+00 0.0000000000000000e+00 0.0000000000000000e+00  0.0000000000000000e+00 0.0000000000000000e+00 0.0000000000000000e+00  0.0000000000000000e+00 0.0000000000000000e+00 0.0000000000000000e+00  -1.6388469161719604e-06 -1.9683495947224788e-06 0.0000000000000000e+00  -3.4710552029381597e-06 -3.7580584473194248e-06 0.0000000000000000e+00  -5.8619425740935686e-06 -5.2317911493835048e-06 0.0000000000000000e+00  -9.5723510650088717e-06 -6.3543740214465026e-06 0.0000000000000000e+00  -6.3895380448549433e-06 -4.5738492333414690e-06 0.0000000000000000e+00  -2.9648209878449441e-06 -3.2236033309759365e-06 0.0000000000000000e+00  -1.0657884088085007e-06 -2.1041519677910297e-06 0.0000000000000000e+00  -2.7432348480188315e-07 -1.2304413745453601e-06 0.0000000000000000e+00  -1.7042721551270180e-07 -8.4908442995886480e-07 0.0000000000000000e+00  -1.2380085432845578e-07 -1.0957426403402148e-06 0.0000000000000000e+00  4.7072065634094994e-07 -1.9125310391878922e-06 0.0000000000000000e+00  2.0352854792707801e-06 -2.9495578723430824e-06 0.0000000000000000e+00  4.7274186919968714e-06 -4.1313365298797543e-06 0.0000000000000000e+00  8.4823643817513459e-06 -4.7894332002475509e-06 0.0000000000000000e+00  5.1450314150862119e-06 -4.3607383533073909e-06 0.0000000000000000e+00  3.0308051675332090e-06 -3.2716500875063820e-06 0.0000000000000000e+00  1.4287111600071600e-06 -1.7458228693275740e-06 0.0000000000000000e+00  0.0000000000000000e+00 0.0000000000000000e+00 0.0000000000000000e+00  0.0000000000000000e+00 0.0000000000000000e+00 0.0000000000000000e+00  -2.5042406500261263e-06 -4.6512421938845511e-06 0.0000000000000000e+00  -4.7073900984030609e-06 -8.7800054471616568e-06 0.0000000000000000e+00  -6.4457901954629148e-06 -1.1868172392481513e-05 0.0000000000000000e+00  -7.7786318975849698e-06 -1.3406646545507911e-05 0.0000000000000000e+00  -3.5301027393433708e-06 -1.2741836326711406e-05 0.0000000000000000e+00  -4.3779380030236580e-07 -9.4649950325083076e-06 0.0000000000000000e+00  9.0110902217805284e-07 -5.2114270105268504e-06 0.0000000000000000e+00  7.1651342252163023e-07 -1.8311873895341754e-06 0.0000000000000000e+00  -3.2460952497971268e-07 -4.5666317343926921e-07 0.0000000000000000e+00  -1.4118876256165636e-06 -1.4646815111516065e-06 0.0000000000000000e+00  -1.7444680870525626e-06 -4.2744476707520497e-06 0.0000000000000000e+00  -5.3271329185189686e-07 -8.1125706492164650e-06 0.0000000000000000e+00  2.4271827164969045e-06 -1.1980241306860894e-05 0.0000000000000000e+00  6.4568695820632454e-06 -1.3364281992128166e-05 0.0000000000000000e+00  5.3976167563073408e-06 -1.1363037881497092e-05 0.0000000000000000e+00  4.0130700902957986e-06 -8.2902355547413570e-06 0.0000000000000000e+00  2.1638800376319569e-06 -4.3716073909885176e-06 0.0000000000000000e+00  0.0000000000000000e+00 0.0000000000000000e+00 0.0000000000000000e+00  0.0000000000000000e+00 0.0000000000000000e+00 0.0000000000000000e+00  -4.5739797694910906e-06 -9.4239709028803175e-06 0.0000000000000000e+00  -7.8027250643782029e-06 -1.7964266805464447e-05 0.0000000000000000e+00  -8.6518835777818709e-06 -2.4703263014707633e-05 0.0000000000000000e+00  -6.8118769066681979e-06 -2.8741639290365618e-05 0.0000000000000000e+00  8.1716839179311506e-07 -2.4111128468075462e-05 0.0000000000000000e+00  4.6281132126590067e-06 -1.4395394538445910e-05 0.0000000000000000e+00  4.0494247393721962e-06 -4.2129376023613186e-06 0.0000000000000000e+00  1.5910156226588873e-06 1.4899283051759613e-06 0.0000000000000000e+00  -9.1535286935941226e-07 2.7006919010004286e-06 0.0000000000000000e+00  -3.0819970070358322e-06 8.7501468457672059e-07 0.0000000000000000e+00  -4.5401029684691924e-06 -4.1638642664955980e-06 0.0000000000000000e+00  -4.6840160576218743e-06 -1.2610544800179734e-05 0.0000000000000000e+00  -2.4329144826922697e-06 -2.1348669623554945e-05 0.0000000000000000e+00  4.0872716677552159e-06 -2.5592564619531537e-05 0.0000000000000000e+00  6.9513864580833521e-06 -2.2651510263650279e-05 0.0000000000000000e+00  6.8538945201293048e-06 -1.6692050994063422e-05 0.0000000000000000e+00  4.1577812380166435e-06 -8.8092357686183057e-06 0.0000000000000000e+00  0.0000000000000000e+00 0.0000000000000000e+00 0.0000000000000000e+00  0.0000000000000000e+00 0.0000000000000000e+00 0.0000000000000000e+00  -1.2024026207710046e-05 -1.7731067233552279e-05 0.0000000000000000e+00  -2.0416304002768491e-05 -3.4353375234674056e-05 0.0000000000000000e+00  -2.1614620224368453e-05 -4.8340495545738681e-05 0.0000000000000000e+00  -1.2461880254862150e-05 -5.7138149238297326e-05 0.0000000000000000e+00  1.4474414196802540e-06 -3.5995000232861185e-05 0.0000000000000000e+00  -3.4184095264481300e-07 -1.1132838845467122e-05 0.0000000000000000e+00  -4.7593740765782195e-06 1.1414951245517051e-06 0.0000000000000000e+00  -4.5898086411671882e-06 2.7817982259182223e-06 0.0000000000000000e+00  -1.0392305154840804e-06 3.2699641434053401e-06 0.0000000000000000e+00  1.8072094482306473e-06 4.3483654413263271e-06 0.0000000000000000e+00  1.4439054063244953e-06 -7.2662965294641177e-07 0.0000000000000000e+00  -3.6735339338792374e-06 -9.5500746943955222e-06 0.0000000000000000e+00  -4.7288732557010068e-06 -3.0637499187568362e-05 0.0000000000000000e+00  9.0671576769186559e-06 -5.4252244920533448e-05 0.0000000000000000e+00  2.0351371878369199e-05 -4.6013147504415801e-05 0.0000000000000000e+00  2.0088951802282356e-05 -3.2786934362622790e-05 0.0000000000000000e+00  1.1998126515465133e-05 -1.6952266786271961e-05 0.0000000000000000e+00  0.0000000000000000e+00 0.0000000000000000e+00 0.0000000000000000e+00  0.0000000000000000e+00 0.0000000000000000e+00 0.0000000000000000e+00  -3.3999538942701981e-05 -3.0471942762319539e-05 0.0000000000000000e+00  -6.1804153453646593e-05 -6.1281312417169756e-05 0.0000000000000000e+00  -7.5980005641912177e-05 -9.2732438130871609e-05 0.0000000000000000e+00  -6.6100622131843161e-05 -1.2505623560655826e-04 0.0000000000000000e+00  -4.4671668299675148e-05 -5.8311123287241450e-05 0.0000000000000000e+00  -4.6804637258206925e-05 -6.6815625038816695e-07 0.0000000000000000e+00  -3.6929912138831329e-05 -9.6854098814983656e-06 0.0000000000000000e+00  -1.7524841892048653e-05 -1.2576384931517426e-05 0.0000000000000000e+00  -2.9716345244896870e-06 -1.3267891885867132e-05 0.0000000000000000e+00  1.1453838209198745e-05 -1.3281101822534440e-05 0.0000000000000000e+00  3.0233068766239536e-05 -1.3859326994681587e-05 0.0000000000000000e+00  4.7542172469208511e-05 5.5314329123604405e-06 0.0000000000000000e+00  4.6868074865560920e-05 -4.8576863556236004e-05 0.0000000000000000e+00  7.0712907465626863e-05 -1.1935796883671641e-04 0.0000000000000000e+00  7.9934785636249630e-05 -8.9320809355768242e-05 0.0000000000000000e+00  6.4635666071772912e-05 -5.9314243171191952e-05 0.0000000000000000e+00  3.5466357616613042e-05 -2.9564786163161744e-05 0.0000000000000000e+00  0.0000000000000000e+00 0.0000000000000000e+00 0.0000000000000000e+00  0.0000000000000000e+00 0.0000000000000000e+00 0.0000000000000000e+00  -8.0747943784397941e-05 -4.1860558156534855e-05 0.0000000000000000e+00  -1.5769603891901927e-04 -8.5637979060374203e-05 0.0000000000000000e+00  -2.2654472453805530e-04 -1.3362642385230126e-04 0.0000000000000000e+00  -2.8199278136615435e-04 -1.8902817725590249e-04 0.0000000000000000e+00  -2.7155412668886829e-04 -6.9799630400588813e-05 0.0000000000000000e+00  -2.8029254378268025e-04 4.8263511620584807e-05 0.0000000000000000e+00  -1.9227772643614656e-04 3.3874629860092544e-05 0.0000000000000000e+00  -9.5833296428504087e-05 2.6041919067430447e-05 0.0000000000000000e+00  3.7696474016719946e-06 2.4357949764755291e-05 0.0000000000000000e+00  1.0444555455822606e-04 2.9039784480846227e-05 0.0000000000000000e+00  2.0454765825733630e-04 4.1537065942682547e-05 0.0000000000000000e+00  3.0042567518857817e-04 6.5518408611925212e-05 0.0000000000000000e+00  2.9159313955987048e-04 -6.0776350235206060e-05 0.0000000000000000e+00  2.9801805290917887e-04 -1.8799909306636429e-04 0.0000000000000000e+00  2.3758740675931854e-04 -1.3250063878964859e-04 0.0000000000000000e+00  1.6465563552064077e-04 -8.4809703099378598e-05 0.0000000000000000e+00  8.4118083500133033e-05 -4.1436477973178697e-05 0.0000000000000000e+00  0.0000000000000000e+00 0.0000000000000000e+00 0.0000000000000000e+00  0.0000000000000000e+00 0.0000000000000000e+00 0.0000000000000000e+00  -1.4268206717580738e-04 -4.5578952222991961e-05 0.0000000000000000e+00  -2.8596385130971540e-04 -9.3145784968458212e-05 0.0000000000000000e+00  -4.3067505620632079e-04 -1.4486027196743866e-04 0.0000000000000000e+00  -5.7825114406925696e-04 -2.0321443449194298e-04 0.0000000000000000e+00  -5.8001377096630197e-04 -6.6833186969383378e-05 0.0000000000000000e+00  -5.7974527055954092e-04 7.1370956237172049e-05 0.0000000000000000e+00  -3.8136969196659687e-04 5.1215381645500620e-05 0.0000000000000000e+00  -1.8678733906655427e-04 4.0069862517246311e-05 0.0000000000000000e+00  6.2217085152862698e-06 3.6524752500553492e-05 0.0000000000000000e+00  1.9975150060310063e-04 4.0103995224435861e-05 0.0000000000000000e+00  3.9579510768275540e-04 5.1004695379599932e-05 0.0000000000000000e+00  5.9610753961640312e-04 6.9838489815469818e-05 0.0000000000000000e+00  5.9894006390919733e-04 -6.6550239712853847e-05 0.0000000000000000e+00  5.9944369011378986e-04 -2.0199158826728357e-04 0.0000000000000000e+00  4.4521189206773217e-04 -1.4443969175884175e-04 0.0000000000000000e+00  2.9507957393671089e-04 -9.3027948788034306e-05 0.0000000000000000e+00  1.4707991132329484e-04 -4.5557693711356585e-05 0.0000000000000000e+00  0.0000000000000000e+00 0.0000000000000000e+00 0.0000000000000000e+00  0.0000000000000000e+00 0.0000000000000000e+00 0.0000000000000000e+00  -2.0219907401057357e-04 -4.1344099654915433e-05 0.0000000000000000e+00  -4.0848408492989783e-04 -8.4059303687504183e-05 0.0000000000000000e+00  -6.2329789914939489e-04 -1.2952993961581490e-04 0.0000000000000000e+00  -8.5183128602045466e-04 -1.7913737272892160e-04 0.0000000000000000e+00  -8.5996496737568656e-04 -6.5817649246855480e-05 0.0000000000000000e+00  -8.5155166342059687e-04 4.6836184135682732e-05 0.0000000000000000e+00  -5.5533564686774503e-04 3.2530410786709771e-05 0.0000000000000000e+00  -2.7146898581607392e-04 2.3707752256161600e-05 0.0000000000000000e+00  6.5910370736376695e-06 2.0204537244754538e-05 0.0000000000000000e+00  2.8502312763406767e-04 2.1892564659557359e-05 0.0000000000000000e+00  5.7001191802288963e-04 2.8750091812862364e-05 0.0000000000000000e+00  8.6814914349745038e-04 4.0829537246268765e-05 0.0000000000000000e+00  8.7756539170146777e-04 -7.0826140656015280e-05 0.0000000000000000e+00  8.6996396053895812e-04 -1.8257437128366518e-04 0.0000000000000000e+00  6.3638490532319405e-04 -1.3181160261362259e-04 0.0000000000000000e+00  4.1694042903668024e-04 -8.5475583991851734e-05 0.0000000000000000e+00  2.0634332486315913e-04 -4.2026215384896815e-05 0.0000000000000000e+00  0.0000000000000000e+00 0.0000000000000000e+00 0.0000000000000000e+00  0.0000000000000000e+00 0.0000000000000000e+00 0.0000000000000000e+00  -2.4535189661345464e-04 -3.1624528346873604e-05 0.0000000000000000e+00  -4.9685687999973113e-04 -6.3949534278228803e-05 0.0000000000000000e+00  -7.6098870999038700e-04 -9.7649923715310309e-05 0.0000000000000000e+00  -1.0448676181816342e-03 -1.3334173481879054e-04 0.0000000000000000e+00  -1.0567410585847776e-03 -6.6288369829112782e-05 0.0000000000000000e+00  -1.0447925606178069e-03 6.7333327895399435e-07 0.0000000000000000e+00  -6.7996237056138810e-04 -8.0763155382801040e-06 0.0000000000000000e+00  -3.3295148381635840e-04 -1.3920733476641596e-05 0.0000000000000000e+00  5.4707071101066429e-06 -1.6869353689964436e-05 0.0000000000000000e+00  3.4409214137867201e-04 -1.6985875205512329e-05 0.0000000000000000e+00  6.9168848216277009e-04 -1.4381802892145262e-05 0.0000000000000000e+00  1.0574471099808914e-03 -9.2354191304642209e-06 0.0000000000000000e+00  1.0700613612425035e-03 -7.4130071901823549e-05 0.0000000000000000e+00  1.0585099794857809e-03 -1.3880500702276709e-04 0.0000000000000000e+00  7.7096060542218830e-04 -1.0147280821158741e-04 0.0000000000000000e+00  5.0337471417104317e-04 -6.6374336599007766e-05 0.0000000000000000e+00  2.4857041059668115e-04 -3.2801380579182487e-05 0.0000000000000000e+00  0.0000000000000000e+00 0.0000000000000000e+00 0.0000000000000000e+00  0.0000000000000000e+00 0.0000000000000000e+00 0.0000000000000000e+00  -2.6387538639966796e-04 -1.9103554717572705e-05 0.0000000000000000e+00  -5.3468887132417434e-04 -3.8338175893849525e-05 0.0000000000000000e+00  -8.1963627102888618e-04 -5.7803740076975318e-05 0.0000000000000000e+00  -1.1264287371367582e-03 -7.7536402891162799e-05 0.0000000000000000e+00  -1.1396335317725114e-03 -6.7158604992245628e-05 0.0000000000000000e+00  -1.1262735447877660e-03 -5.6858471320549155e-05 0.0000000000000000e+00  -7.3337537048121610e-04 -6.0296796811156336e-05 0.0000000000000000e+00  -3.6010907082040000e-04 -6.3124904828847902e-05 0.0000000000000000e+00  3.5520235050657366e-06 -6.5264038257327310e-05 0.0000000000000000e+00  3.6728869081864080e-04 -6.6739424227004924e-05 0.0000000000000000e+00  7.4077516876430065e-04 -6.7676449300343452e-05 0.0000000000000000e+00  1.1340197709608609e-03 -6.8307484327030191e-05 0.0000000000000000e+00  1.1475746544649449e-03 -7.6065525365788794e-05 0.0000000000000000e+00  1.1345022818888648e-03 -8.3667008253330376e-05 0.0000000000000000e+00  8.2562381297115409e-04 -6.2198631226201303e-05 0.0000000000000000e+00  5.3864587430967428e-04 -4.1170905521928207e-05 0.0000000000000000e+00  2.6584290709148794e-04 -2.0490782659155694e-05 0.0000000000000000e+00  -2.4282502998462184e-12 4.2012081380633081e-12 0.0000000000000000e+00  0.0000000000000000e+00 0.0000000000000000e+00 0.0000000000000000e+00  -2.5463131486158153e-04 -6.0588941334665656e-06 0.0000000000000000e+00  -5.1595298033763428e-04 -1.1803530939438604e-05 0.0000000000000000e+00  -7.9084978686277127e-04 -1.6889719941934323e-05 0.0000000000000000e+00  -1.0865936738427167e-03 -2.0912988390182710e-05 0.0000000000000000e+00  -1.0992422711569251e-03 -6.8446157660020471e-05 0.0000000000000000e+00  -1.0864941385449337e-03 -1.1604296989809195e-04 0.0000000000000000e+00  -7.0832332314576260e-04 -1.1495662933606655e-04 0.0000000000000000e+00  -3.4887538233569285e-04 -1.1508307779411682e-04 0.0000000000000000e+00  1.3309718278768418e-06 -1.1631178759885792e-04 0.0000000000000000e+00  3.5151531104737324e-04 -1.1864477341650621e-04 0.0000000000000000e+00  7.1089154217766275e-04 -1.2219406153705085e-04 0.0000000000000000e+00  1.0889240835972916e-03 -1.2718308473360341e-04 0.0000000000000000e+00  1.1015346073652156e-03 -7.7055070131607539e-05 0.0000000000000000e+00  1.0888350983037668e-03 -2.6818586830210005e-05 0.0000000000000000e+00  7.9263030215306603e-04 -2.1162640407284021e-05 0.0000000000000000e+00  5.1718435760122246e-04 -1.4577781650636914e-05 0.0000000000000000e+00  2.5525967622400916e-04 -7.4237033515365231e-06 0.0000000000000000e+00  0.0000000000000000e+00 0.0000000000000000e+00 0.0000000000000000e+00  0.0000000000000000e+00 0.0000000000000000e+00 0.0000000000000000e+00  -2.1861089555194469e-04 5.7284820563579472e-06 0.0000000000000000e+00  -4.4288463107730798e-04 1.2096933059026131e-05 0.0000000000000000e+00  -6.7862194096739788e-04 1.9771970087225567e-05 0.0000000000000000e+00  -9.3189651848744491e-04 2.9473549634623893e-05 0.0000000000000000e+00  -9.4261147527010549e-04 -6.9975869784582540e-05 0.0000000000000000e+00  -9.3193211774126802e-04 -1.6946178108155846e-04 0.0000000000000000e+00  -6.0843915797474961e-04 -1.6476859443302372e-04 0.0000000000000000e+00  -3.0070279501360028e-04 -1.6263527622978970e-04 0.0000000000000000e+00  -8.0056775933182023e-07 -1.6294551197404322e-04 0.0000000000000000e+00  2.9900485648454449e-04 -1.6568821305544562e-04 0.0000000000000000e+00  6.0644553773803026e-04 -1.7095650323953294e-04 0.0000000000000000e+00  9.2942820369242094e-04 -1.7894774747755703e-04 0.0000000000000000e+00  9.3971707367657305e-04 -7.7260700970425140e-05 0.0000000000000000e+00  9.2883549578928531e-04 2.4512355011558177e-05 0.0000000000000000e+00  6.7655020951639267e-04 1.6156925491276239e-05 0.0000000000000000e+00  4.4160738430730522e-04 9.7378852278985167e-06 0.0000000000000000e+00  2.1800280378725731e-04 4.5643619168241455e-06 0.0000000000000000e+00  0.0000000000000000e+00 0.0000000000000000e+00 0.0000000000000000e+00  0.0000000000000000e+00 0.0000000000000000e+00 0.0000000000000000e+00  -1.5992202389823279e-04 1.4956062498604855e-05 0.0000000000000000e+00  -3.2392874924592693e-04 3.0770943247167153e-05 0.0000000000000000e+00  -4.9619309253533109e-04 4.8327093627154627e-05 0.0000000000000000e+00  -6.8106090333931518e-04 6.8554126095050113e-05 0.0000000000000000e+00  -6.8887466237176618e-04 -7.1595453867937653e-05 0.0000000000000000e+00  -6.8129750307832496e-04 -2.1175913587680710e-04 0.0000000000000000e+00  -4.4558517168161540e-04 -2.0434806025567065e-04 0.0000000000000000e+00  -2.2121935784550088e-04 -2.0041900221587339e-04 0.0000000000000000e+00  -2.5425005657910632e-06 -1.9985518444757161e-04 0.0000000000000000e+00  2.1598406510276556e-04 -2.0263529105260121e-04 0.0000000000000000e+00  4.3989375769408701e-04 -2.0883345741905905e-04 0.0000000000000000e+00  6.7482850077057717e-04 -2.1861871233540503e-04 0.0000000000000000e+00  6.8184202578573238e-04 -7.6838075955743037e-05 0.0000000000000000e+00  6.7378437619319777e-04 6.5005580335075966e-05 0.0000000000000000e+00  4.9105013112101100e-04 4.5730694039343795e-05 0.0000000000000000e+00  3.2064715379688405e-04 2.9071414653343139e-05 0.0000000000000000e+00  1.5832473242409555e-04 1.4115803821117364e-05 0.0000000000000000e+00  0.0000000000000000e+00 0.0000000000000000e+00 0.0000000000000000e+00  0.0000000000000000e+00 0.0000000000000000e+00 0.0000000000000000e+00  -8.4875748583761252e-05 2.0748564670518174e-05 0.0000000000000000e+00  -1.7190770708450648e-04 4.2479906024504381e-05 0.0000000000000000e+00  -2.6329611191633779e-04 6.6198475847460575e-05 0.0000000000000000e+00  -3.6132544012596862e-04 9.2951806699321531e-05 0.0000000000000000e+00  -3.6562950041275319e-04 -7.3171533439255111e-05 0.0000000000000000e+00  -3.6181453088524930e-04 -2.3928742891858102e-04 0.0000000000000000e+00  -2.3740019639146304e-04 -2.3000498705913418e-04 0.0000000000000000e+00  -1.1900514849683160e-04 -2.2474743782790018e-04 0.0000000000000000e+00  -3.6808800133370653e-06 -2.2339495432949764e-04 0.0000000000000000e+00  1.1146068136261522e-04 -2.2591611338581747e-04 0.0000000000000000e+00  2.2930232418988175e-04 -2.3236823929699628e-04 0.0000000000000000e+00  3.5277673086377430e-04 -2.4289671670947241e-04 0.0000000000000000e+00  3.5592713835499746e-04 -7.5919373404107333e-05 0.000000