<?xml version="1.0"?>
<VTKFile type="UnstructuredGrid"  version="0.1"  >
<UnstructuredGrid>
<Piece  NumberOfPoints="589" NumberOfCells="1080">
<Points>
<DataArray  type="Float64"  NumberOfComponents="3"  format="ascii">-9 0 0  -8 0 0  -7 0 0  -6 0 0  -5 0 0  -4 0 0  -3 0 0  -2 0 0  -1 0 0  0 0 0  1 0 0  2 0 0  3 0 0  4 0 0  5 0 0  6 0 0  7 0 0  8 0 0  9 0 0  -9 2 0  -8.0000081507137 1.999987576876025 0  -7.000017109836927 1.999976696457142 0  -6.000028785191756 1.999968612787611 0  -5.000047543250809 1.999963880020001 0  -4.000028026931611 1.99997295843703 0  -3.000007946293985 1.999981636095475 0  -1.999998164702 1.999989807401469 0  -0.9999965620802671 1.999996262914005 0  -6.069664719080471e-08 1.999999079325768 0  0.999996099234293 1.999997075954291 0  1.99999654923548 1.999990719324851 0  3.000004411186358 1.999982916284712 0  4.000020677750959 1.999974530362999 0  5.00004428629357 1.99997098578585 0  6.00002680879042 1.999972265415946 0  7.000015980143106 1.999978634208596 0  8.000007639898293 1.999988441551904 0  9 2 0  -9 4 0  -8.000013067591892 3.999968983815378 0  -7.000023354798864 3.999942206573285 0  -6.000029239467071 3.99992382232492 0  -5.00003106777136 3.999917795763687 0  -4.000002539260961 3.99992197648497 0  -2.999983392006847 3.99994649919467 0  -1.999978398894049 3.999978461644117 0  -0.9999856896605068 4.000004173793613 0  3.378548087277946e-07 4.000014497683671 0  0.9999860864147048 4.000006273077362 0  1.999977862594176 3.999984188671462 0  2.999981985914456 3.99995428664806 0  4.00000038799724 3.999924142530739 0  5.000028449320411 3.999913805367089 0  6.000027021935587 3.99992417479809 0  7.000022006416033 3.999943515205339 0  8.000012478013945 3.999969879709226 0  9 4 0  -9 6 0  -8.00002910491337 5.999933439351605 0  -7.00004720983841 5.999874148759469 0  -6.000045919190126 5.999829605021957 0  -5.000022818510663 5.999806985652434 0  -3.999967007131363 5.999843314815973 0  -2.999941601313567 5.999919392570774 0  -1.999951560525404 5.999999178782764 0  -0.9999765091233594 6.000043563510015 0  -1.799968718871607e-06 6.000052430419131 0  0.9999754310389943 6.000037909137735 0  1.999958085065524 5.999997819888711 0  2.999951648071387 5.99993008723177 0  3.999965011488123 5.999859779024743 0  5.000012940990915 5.999824755424245 0  6.000041587575081 5.999840204084061 0  7.00004608299706 5.999880304206851 0  8.000029112780073 5.99993629890037 0  9 6 0  -9 8 0  -8.000089129399454 7.999868834850332 0  -7.000148639466979 7.999747125280613 0  -6.00014983445719 7.99964771178414 0  -5.000068133914107 7.999591758490157 0  -3.999960175256646 7.99975988403229 0  -2.999979830806316 7.999957487208318 0  -2.000020133842709 8.000053889618084 0  -1.000023474915077 8.000065021690014 0  6.799155459967506e-07 8.000068293547763 0  1.000018683694065 8.000078035904616 0  2.000011134642719 8.000037432465815 0  2.999963925504386 7.999968333676756 0  3.99994794375473 7.999797312038855 0  5.000054607283445 7.999604298630256 0  6.000152742242452 7.999657657812706 0  7.000156004076507 7.999753538151098 0  8.000094302259361 7.999871910054514 0  9 8 0  -9 10 0  -8.000267529356444 9.999766490129481 0  -7.000483219817237 9.999531044608268 0  -6.000585227166499 9.999292187582824 0  -5.000487375527088 9.999049544051354 0  -4.000316386832048 9.999592156117064 0  -3.000343947237878 10.0000587369159 0  -2.000274243623704 9.999978772158549 0  -1.000123825331354 9.999953100452 0  -1.282265335218411e-05 9.999946820114353 0  1.000097427216859 9.999947251261972 0  2.000244396880012 9.999944116016605 0  3.000373576661273 10.00011302699887 0  4.000357080829314 9.999666506150973 0  5.00055292560346 9.999077236371097 0  6.00064316797203 9.99930519808801 0  7.000525639803254 9.999536901578944 0  8.00028980179302 9.999768709774132 0  9 10 0  -9 12 0  -8.000652813281992 11.99967206314758 0  -7.001271762249102 11.99932890544145 0  -6.001818566614577 11.99895232463665 0  -5.002245689022992 11.99851694666579 0  -4.002158508935163 11.9995057105453 0  -3.002237209483994 12.00048449399916 0  -2.001529431509707 12.00036688401911 0  -1.000743422470767 12.00030373755666 0  7.189619057728401e-05 12.00029236159692 0  1.000894676428552 12.00033487960221 0  2.001706335334448 12.00044337375054 0  3.002469874331706 12.00064800606186 0  4.002384394554579 11.99957562860143 0  5.002441140501646 11.99849425779629 0  6.001963583027375 11.99893816636988 0  7.001367967593164 11.99932008884696 0  8.00070082133163 11.99966773177981 0  9 12 0  -9 14 0  -8.001172581988051 13.9996387174065 0  -7.002347325764933 13.99926080116748 0  -6.003527969048319 13.99884815075651 0  -5.004722241858124 13.99837978705577 0  -4.004734965050158 13.99953435764695 0  -3.004741742725803 14.00070348665921 0  -2.003099381760326 14.00053750756836 0  -1.001481051279045 14.00044761643342 0  0.0001270247749726021 14.000422627623 0  1.00173787953037 14.00045897322132 0  2.00336351941409 14.00055861385461 0  3.005013292357287 14.00072694100085 0  4.005025390105449 13.99953318404281 0  5.005033121160571 13.99834671122603 0  6.003753828298787 13.9988198656696 0  7.002495011217601 13.99924086508156 0  8.0012456628012 13.99962851073164 0  9 14 0  -9 16 0  -8.001682378101126 15.99967203775737 0  -7.003397106906915 15.99933191236763 0  -6.005179335576604 15.99896724975995 0  -5.007069894226519 15.99856544463812 0  -4.007137720693698 15.99954844750211 0  -3.007073671042821 16.00052617594399 0  -2.004576659476731 16.0004048533808 0  -1.002179159724071 16.0003327526494 0  0.000171124784715944 16.0003083405632 0  1.002523592200483 16.00033066079718 0  2.004927625030215 16.00039988241117 0  3.007435745199256 16.00051704884735 0  4.007507038218271 15.99950186568977 0  5.007444497433302 15.99848587113165 0  6.005458105752666 15.99891072397177 0  7.003581714354257 15.99929543343942 0  8.001774288587962 15.99965411408295 0  9 16 0  -9 18 0  -8.002061373432891 17.99975404506274 0  -7.004174384478882 17.99950131104872 0  -6.00639335300087 17.99923514314251 0  -5.008777922764944 17.99894915712802 0  -4.008880118607264 17.99955140653103 0  -3.008781502940867 18.00015281951394 0  -2.005660322146436 18.00007619935187 0  -1.002690466435246 18.00002805324155 0  0.0002064404087052902 18.00000803374836 0  1.003104967877515 18.00001563344884 0  2.006079581272532 18.00005022585747 0  3.009208294693324 18.00011091795932 0  4.009312530315763 17.99947860172442 0  5.009213158353698 17.99884807215327 0  6.006717732412795 17.99916250320486 0  7.004389631241038 17.99945433108838 0  8.002168692235749 17.99973097502641 0  9 18 0  -9 20 0  -8.002232524993397 19.9998631472893 0  -7.004525268630207 19.99972448002018 0  -6.006940745511813 19.99958238663003 0  -5.009546059203355 19.99943565126618 0  -4.0096625613422 19.99955122208608 0  -3.009547338111922 19.99966583869926 0  -2.006143690641346 19.99963430139664 0  -1.002912337234192 19.99961152193402 0  0.0002351978483893263 19.99959792359278 0  1.003384191073835 19.99959328745574 0  2.006619891194472 19.99959677520668 0  3.010030704462052 19.9996068733074 0  4.010148448370709 19.99946717558475 0  5.010032242135629 19.99932866088933 0  6.007303272455168 19.99950479440831 0  7.004765946764428 19.99967401180163 0  8.002352562372616 19.99983829082744 0  8.999999999994971 19.9999999999934 0  -9 22 0  -8.002161603630237 21.99997948406052 0  -7.004382666308632 21.99996134968947 0  -6.00672451309104 21.99994820596709 0  -5.00925218042861 21.99994312193892 0  -4.009366188939072 21.99954643382877 0  -3.00925299005413 21.99914865125807 0  -2.005942965960076 21.99915758957679 0  -1.002801323028682 21.99915850477263 0  0.0002581325758859225 21.99915220405779 0  1.003318992266287 21.99913866789413 0  2.00646484303687 21.99911706570701 0  3.009781868931833 21.99908574070209 0  4.009895312962581 21.99946366781771 0  5.009779170365249 21.99984219885729 0  6.007117633965766 21.99987473369047 0  7.00464372931688 21.99991341946781 0  8.002291824971241 21.99995583439874 0  9 22 0  -9 24 0  -8.001851608674606 24.0000862971811 0  -7.003754309974014 24.00017825826723 0  -6.005760643023813 24.00028178057798 0  -5.007925924972448 24.00040324629039 0  -4.008024196446557 23.99953716262941 0  -3.007927655402314 23.99867005588881 0  -2.005073660998928 23.99871277233962 0  -1.002363836732935 23.99873416529132 0  0.0002755781169084096 23.99873523918137 0  1.0029163742872 23.99871611194709 0  2.005630348909328 23.99867601900006 0  3.008491284243212 23.99861330731934 0  4.00858622723458 23.99946587342466 0  5.008484029175933 24.00031870839468 0  6.006177060424025 24.00022003461209 0  7.004030886019423 24.00013788342869 0  8.001989577646933 24.00006634700695 0  9 24 0  -9 26 0  -8.001335825826706 26.00017048175223 0  -7.002708642054396 26.00034893898037 0  -6.00415646679243 26.00054358399157 0  -5.005719147141495 26.0007631221263 0  -4.005791577972429 25.99952392605161 0  -3.005722695924151 25.99828390520694 0  -2.003632446338385 25.99835279976966 0  -1.001646873807031 25.99839065435751 0  0.0002877048973856534 25.99839862614681 0  1.002223637913299 25.99837695472063 0  2.004213282055874 25.99832496306862 0  3.00631034641232 25.99824105534031 0  4.006376293053364 25.99947178158573 0  5.006298632027916 26.00070254080969 0  6.004588941637564 26.00049923838957 0  7.002995932107956 26.00031989404442 0  8.001479154338723 26.00015611460995 0  9 26 0  -9 28 0  -8.000670433371184 28.00022279511343 0  -7.001359939429645 28.00045488885684 0  -6.002088180889045 28.00070582041478 0  -5.002875688907942 28.00098561853036 0  -4.00291534277394 27.99950792560696 0  -3.002881302407275 27.99802975783611 0  -2.001777200427015 27.99811651374729 0  -1.000728053671018 27.99816619520332 0  0.000294622631928093 27.99818009811125 0  1.001318613479455 27.99815857925407 0  2.002371708931534 27.99810105690559 0  3.003482409344773 27.99800600945032 0  4.003512688731159 27.99948003489619 0  5.003467024990895 28.0009540105286 0  6.002529611994182 28.00068263535112 0  7.001653235305271 28.00043967936456 0  8.000816778407218 28.00021526345692 
[...]
<PointData  Vectors="f_42"> 
<DataArray  type="Float64"  Name="f_42"  NumberOfComponents="3" format="ascii">0.0000000000000000e+00 0.0000000000000000e+00 0.0000000000000000e+00  0.0000000000000000e+00 0.0000000000000000e+00 0.0000000000000000e+00  0.0000000000000000e+00 0.0000000000000000e+00 0.0000000000000000e+00  0.0000000000000000e+00 0.0000000000000000e+00 0.0000000000000000e+00  0.0000000000000000e+00 0.0000000000000000e+00 0.0000000000000000e+00  0.0000000000000000e+00 0.0000000000000000e+00 0.0000000000000000e+00  0.0000000000000000e+00 0.0000000000000000e+00 0.0000000000000000e+00  0.0000000000000000e+00 0.0000000000000000e+00 0.0000000000000000e+00  0.0000000000000000e+00 0.0000000000000000e+00 0.0000000000000000e+00  0.0000000000000000e+00 0.0000000000000000e+00 0.0000000000000000e+00  0.0000000000000000e+00 0.0000000000000000e+00 0.0000000000000000e+00  0.0000000000000000e+00 0.0000000000000000e+00 0.0000000000000000e+00  0.0000000000000000e+00 0.0000000000000000e+00 0.0000000000000000e+00  0.0000000000000000e+00 0.0000000000000000e+00 0.0000000000000000e+00  0.0000000000000000e+00 0.0000000000000000e+00 0.0000000000000000e+00  0.0000000000000000e+00 0.0000000000000000e+00 0.0000000000000000e+00  0.0000000000000000e+00 0.0000000000000000e+00 0.0000000000000000e+00  0.0000000000000000e+00 0.0000000000000000e+00 0.0000000000000000e+00  0.0000000000000000e+00 0.0000000000000000e+00 0.0000000000000000e+00  0.0000000000000000e+00 0.0000000000000000e+00 0.0000000000000000e+00  -8.1507137073585901e-06 -1.2423123973480502e-05 0.0000000000000000e+00  -1.7109836922177396e-05 -2.3303542858327216e-05 0.0000000000000000e+00  -2.8785191756229330e-05 -3.1387212389031712e-05 0.0000000000000000e+00  -4.7543250815979418e-05 -3.6119980000722118e-05 0.0000000000000000e+00  -2.8026931608586216e-05 -2.7041562968890703e-05 0.0000000000000000e+00  -7.9462939883793846e-06 -1.8363904524162934e-05 0.0000000000000000e+00  1.8352980020843454e-06 -1.0192598531335581e-05 0.0000000000000000e+00  3.4379197322753066e-06 -3.7370859947283505e-06 0.0000000000000000e+00  -6.0696647190804714e-08 -9.2067423286931663e-07 0.0000000000000000e+00  -3.9007657061533069e-06 -2.9240457079040321e-06 0.0000000000000000e+00  -3.4507645214414367e-06 -9.2806751474358379e-06 0.0000000000000000e+00  4.4111863605458830e-06 -1.7083715290038990e-05 0.0000000000000000e+00  2.0677750960232474e-05 -2.5469637000962753e-05 0.0000000000000000e+00  4.4286293571149882e-05 -2.9014214149931204e-05 0.0000000000000000e+00  2.6808790415821507e-05 -2.7734584053774212e-05 0.0000000000000000e+00  1.5980143104702872e-05 -2.1365791405093199e-05 0.0000000000000000e+00  7.6398982875867394e-06 -1.1558448098108424e-05 0.0000000000000000e+00  0.0000000000000000e+00 0.0000000000000000e+00 0.0000000000000000e+00  0.0000000000000000e+00 0.0000000000000000e+00 0.0000000000000000e+00  -1.3067591886871526e-05 -3.1016184623817261e-05 0.0000000000000000e+00  -2.3354798856797302e-05 -5.7793426715161009e-05 0.0000000000000000e+00  -2.9239467071483828e-05 -7.6177675081178837e-05 0.0000000000000000e+00  -3.1067771364217345e-05 -8.2204236311317141e-05 0.0000000000000000e+00  -2.5392609626756875e-06 -7.8023515029922161e-05 0.0000000000000000e+00  1.6607993151521264e-05 -5.3500805327499402e-05 0.0000000000000000e+00  2.1601105950235004e-05 -2.1538355884345549e-05 0.0000000000000000e+00  1.4310339493129879e-05 4.1737936130901626e-06 0.0000000000000000e+00  3.3785480872779458e-07 1.4497683673810439e-05 0.0000000000000000e+00  -1.3913585295479821e-05 6.2730773669570578e-06 0.0000000000000000e+00  -2.2137405823620112e-05 -1.5811328538424356e-05 0.0000000000000000e+00  -1.8014085539550639e-05 -4.5713351939604671e-05 0.0000000000000000e+00  3.8799723565891276e-07 -7.5857469261473486e-05 0.0000000000000000e+00  2.8449320405047564e-05 -8.6194632910610729e-05 0.0000000000000000e+00  2.7021935582448534e-05 -7.5825201908216844e-05 0.0000000000000000e+00  2.2006416035114822e-05 -5.6484794660060333e-05 0.0000000000000000e+00  1.2478013959463287e-05 -3.0120290775610858e-05 0.0000000000000000e+00  0.0000000000000000e+00 0.0000000000000000e+00 0.0000000000000000e+00  0.0000000000000000e+00 0.0000000000000000e+00 0.0000000000000000e+00  -2.9104913379785676e-05 -6.6560648400880947e-05 0.0000000000000000e+00  -4.7209838407303518e-05 -1.2585124053103710e-04 0.0000000000000000e+00  -4.5919190134596332e-05 -1.7039497804095517e-04 0.0000000000000000e+00  -2.2818510660786902e-05 -1.9301434756393735e-04 0.0000000000000000e+00  3.2992868638945100e-05 -1.5668518402156434e-04 0.0000000000000000e+00  5.8398686434372606e-05 -8.0607429221455059e-05 0.0000000000000000e+00  4.8439474595784318e-05 -8.2121723756113913e-07 0.0000000000000000e+00  2.3490876640939904e-05 4.3563510015558950e-05 0.0000000000000000e+00  -1.7999687188716070e-06 5.2430419129146745e-05 0.0000000000000000e+00  -2.4568961006278189e-05 3.7909137737486909e-05 0.0000000000000000e+00  -4.1914934474840850e-05 -2.1801112914661634e-06 0.0000000000000000e+00  -4.8351928613923575e-05 -6.9912768223702077e-05 0.0000000000000000e+00  -3.4988511877370871e-05 -1.4022097525557067e-04 0.0000000000000000e+00  1.2940990915682675e-05 -1.7524457575599851e-04 0.0000000000000000e+00  4.1587575073965749e-05 -1.5979591593657784e-04 0.0000000000000000e+00  4.6082997057938793e-05 -1.1969579314937953e-04 0.0000000000000000e+00  2.9112780069545764e-05 -6.3701099630818575e-05 0.0000000000000000e+00  0.0000000000000000e+00 0.0000000000000000e+00 0.0000000000000000e+00  0.0000000000000000e+00 0.0000000000000000e+00 0.0000000000000000e+00  -8.9129399462064114e-05 -1.3116514966704827e-04 0.0000000000000000e+00  -1.4863946697864661e-04 -2.5287471938884693e-04 0.0000000000000000e+00  -1.4983445719023478e-04 -3.5228821586511108e-04 0.0000000000000000e+00  -6.8133914108398059e-05 -4.0824150983444918e-04 0.0000000000000000e+00  3.9824743354369491e-05 -2.4011596770714171e-04 0.0000000000000000e+00  2.0169193681483804e-05 -4.2512791683401177e-05 0.0000000000000000e+00  -2.0133842710414446e-05 5.3889618087581393e-05 0.0000000000000000e+00  -2.3474915077588925e-05 6.5021690020290322e-05 0.0000000000000000e+00  6.7991554599675058e-07 6.8293547759378998e-05 0.0000000000000000e+00  1.8683694066117155e-05 7.8035904608638344e-05 0.0000000000000000e+00  1.1134642717831378e-05 3.7432465804946457e-05 0.0000000000000000e+00  -3.6074495614282193e-05 -3.1666323239943361e-05 0.0000000000000000e+00  -5.2056245272228408e-05 -2.0268796114189576e-04 0.0000000000000000e+00  5.4607283439956829e-05 -3.9570136975018765e-04 0.0000000000000000e+00  1.5274224245450245e-04 -3.4234218729441293e-04 0.0000000000000000e+00  1.5600407650725274e-04 -2.4646184890983615e-04 0.0000000000000000e+00  9.4302259354132117e-05 -1.2808994548564077e-04 0.0000000000000000e+00  0.0000000000000000e+00 0.0000000000000000e+00 0.0000000000000000e+00  0.0000000000000000e+00 0.0000000000000000e+00 0.0000000000000000e+00  -2.6752935645047858e-04 -2.3350987051789344e-04 0.0000000000000000e+00  -4.8321981723667011e-04 -4.6895539172917336e-04 0.0000000000000000e+00  -5.8522716649946169e-04 -7.0781241717094497e-04 0.0000000000000000e+00  -4.8737552708917950e-04 -9.5045594864886368e-04 0.0000000000000000e+00  -3.1638683204341538e-04 -4.0784388293030777e-04 0.0000000000000000e+00  -3.4394723787942806e-04 5.8736915898787058e-05 0.0000000000000000e+00  -2.7424362370717523e-04 -2.1227841448589759e-05 0.0000000000000000e+00  -1.2382533135500855e-04 -4.6899548000956766e-05 0.0000000000000000e+00  -1.2822653352184110e-05 -5.3179885662470934e-05 0.0000000000000000e+00  9.7427216860898245e-05 -5.2748738031052996e-05 0.0000000000000000e+00  2.4439688001411683e-04 -5.5883983403142054e-05 0.0000000000000000e+00  3.7357666127431333e-04 1.1302699887375432e-04 0.0000000000000000e+00  3.5708082932016616e-04 -3.3349384902905716e-04 0.0000000000000000e+00  5.5292560346569897e-04 -9.2276362890670953e-04 0.0000000000000000e+00  6.4316797203593746e-04 -6.9480191199290003e-04 0.0000000000000000e+00  5.2563980325038987e-04 -4.6309842105372184e-04 0.0000000000000000e+00  2.8980179301476812e-04 -2.3129022587048826e-04 0.0000000000000000e+00  0.0000000000000000e+00 0.0000000000000000e+00 0.0000000000000000e+00  0.0000000000000000e+00 0.0000000000000000e+00 0.0000000000000000e+00  -6.5281328198934791e-04 -3.2793685242149399e-04 0.0000000000000000e+00  -1.2717622491020045e-03 -6.7109455855232300e-04 0.0000000000000000e+00  -1.8185666145755582e-03 -1.0476753633365116e-03 0.0000000000000000e+00  -2.2456890229888226e-03 -1.4830533342034722e-03 0.0000000000000000e+00  -2.1585089351632480e-03 -4.9428945469500135e-04 0.0000000000000000e+00  -2.2372094839949994e-03 4.8449399916708936e-04 0.0000000000000000e+00  -1.5294315097071167e-03 3.6688401911491440e-04 0.0000000000000000e+00  -7.4342247076602001e-04 3.0373755665278907e-04 0.0000000000000000e+00  7.1896190577284006e-05 2.9236159692595570e-04 0.0000000000000000e+00  8.9467642855131473e-04 3.3487960221221776e-04 0.0000000000000000e+00  1.7063353344450669e-03 4.4337375053785197e-04 0.0000000000000000e+00  2.4698743317048818e-03 6.4800606184931291e-04 0.0000000000000000e+00  2.3843945545823468e-03 -4.2437139855598145e-04 0.0000000000000000e+00  2.4411405016382145e-03 -1.5057422037045745e-03 0.0000000000000000e+00  1.9635830273739972e-03 -1.0618336301158366e-03 0.0000000000000000e+00  1.3679675931695587e-03 -6.7991115303951580e-04 0.0000000000000000e+00  7.0082133162714926e-04 -3.3226822019587660e-04 0.0000000000000000e+00  0.0000000000000000e+00 0.0000000000000000e+00 0.0000000000000000e+00  0.0000000000000000e+00 0.0000000000000000e+00 0.0000000000000000e+00  -1.1725819880550870e-03 -3.6128259349772919e-04 0.0000000000000000e+00  -2.3473257649327998e-03 -7.3919883251724280e-04 0.0000000000000000e+00  -3.5279690483225245e-03 -1.1518492434955049e-03 0.0000000000000000e+00  -4.7222418581288634e-03 -1.6202129442367847e-03 0.0000000000000000e+00  -4.7349650501593331e-03 -4.6564235303918729e-04 0.0000000000000000e+00  -4.7417427258012335e-03 7.0348665921280567e-04 0.0000000000000000e+00  -3.0993817603253721e-03 5.3750756835823472e-04 0.0000000000000000e+00  -1.4810512790432975e-03 4.4761643341019724e-04 0.0000000000000000e+00  1.2702477497260215e-04 4.2262762299572675e-04 0.0000000000000000e+00  1.7378795303681534e-03 4.5897322132695204e-04 0.0000000000000000e+00  3.3635194140921934e-03 5.5861385461155938e-04 0.0000000000000000e+00  5.0132923572871997e-03 7.2694100084630235e-04 0.0000000000000000e+00  5.0253901054421691e-03 -4.6681595719658250e-04 0.0000000000000000e+00  5.0331211605741787e-03 -1.6532887739700195e-03 0.0000000000000000e+00  3.7538282987828651e-03 -1.1801343304033505e-03 0.0000000000000000e+00  2.4950112175992603e-03 -7.5913491845063798e-04 0.0000000000000000e+00  1.2456628011970057e-03 -3.7148926836131057e-04 0.0000000000000000e+00  0.0000000000000000e+00 0.0000000000000000e+00 0.0000000000000000e+00  0.0000000000000000e+00 0.0000000000000000e+00 0.0000000000000000e+00  -1.6823781011248630e-03 -3.2796224264166712e-04 0.0000000000000000e+00  -3.3971069069158037e-03 -6.6808763236186409e-04 0.0000000000000000e+00  -5.1793355766031925e-03 -1.0327502400418935e-03 0.0000000000000000e+00  -7.0698942265186868e-03 -1.4345553618874446e-03 0.0000000000000000e+00  -7.1377206936948795e-03 -4.5155249788814638e-04 0.0000000000000000e+00  -7.0736710428212831e-03 5.2617594400212694e-04 0.0000000000000000e+00  -4.5766594767303161e-03 4.0485338081936833e-04 0.0000000000000000e+00  -2.1791597240709841e-03 3.3275264939996535e-04 0.0000000000000000e+00  1.7112478471594395e-04 3.0834056319719357e-04 0.0000000000000000e+00  2.5235922004829378e-03 3.3066079717856972e-04 0.0000000000000000e+00  4.9276250302131060e-03 3.9988241116209109e-04 0.0000000000000000e+00  7.4357451992590291e-03 5.1704884735102440e-04 0.0000000000000000e+00  7.5070382182680041e-03 -4.9813431021320670e-04 0.0000000000000000e+00  7.4444974333065647e-03 -1.5141288683529089e-03 0.0000000000000000e+00  5.4581057526690169e-03 -1.0892760282338633e-03 0.0000000000000000e+00  3.5817143542559533e-03 -7.0456656057953744e-04 0.0000000000000000e+00  1.7742885879673007e-03 -3.4588591704955374e-04 0.0000000000000000e+00  0.0000000000000000e+00 0.0000000000000000e+00 0.0000000000000000e+00  0.0000000000000000e+00 0.0000000000000000e+00 0.0000000000000000e+00  -2.0613734328750345e-03 -2.4595493723354842e-04 0.0000000000000000e+00  -4.1743844788810630e-03 -4.9868895126084771e-04 0.0000000000000000e+00  -6.3933530008690878e-03 -7.6485685749650572e-04 0.0000000000000000e+00  -8.7779227649456473e-03 -1.0508428719770522e-03 0.0000000000000000e+00  -8.8801186072604583e-03 -4.4859346897098667e-04 0.0000000000000000e+00  -8.7815029408679045e-03 1.5281951395096382e-04 0.0000000000000000e+00  -5.6603221464342776e-03 7.6199351867729188e-05 0.0000000000000000e+00  -2.6904664352483073e-03 2.8053241550255828e-05 0.0000000000000000e+00  2.0644040870529021e-04 8.0337483482965635e-06 0.0000000000000000e+00  3.1049678775156640e-03 1.5633448829011264e-05 0.0000000000000000e+00  6.0795812725286036e-03 5.0225857468698931e-05 0.0000000000000000e+00  9.2082946933246274e-03 1.1091795930679029e-04 0.0000000000000000e+00  9.3125303157623671e-03 -5.2139827559631634e-04 0.0000000000000000e+00  9.2131583537013624e-03 -1.1519278467526156e-03 0.0000000000000000e+00  6.7177324127953419e-03 -8.3749679515551269e-04 0.0000000000000000e+00  4.3896312410434376e-03 -5.4566891161650605e-04 0.0000000000000000e+00  2.1686922357475663e-03 -2.6902497358199842e-04 0.0000000000000000e+00  0.0000000000000000e+00 0.0000000000000000e+00 0.0000000000000000e+00  0.0000000000000000e+00 0.0000000000000000e+00 0.0000000000000000e+00  -2.2325249933876500e-03 -1.3685271071450572e-04 0.0000000000000000e+00  -4.5252686302065890e-03 -2.7551997982058101e-04 0.0000000000000000e+00  -6.9407455118169351e-03 -4.1761336993125631e-04 0.0000000000000000e+00  -9.5460592033533593e-03 -5.6434873381356828e-04 0.0000000000000000e+00  -9.6625613421971717e-03 -4.4877791390718417e-04 0.0000000000000000e+00  -9.5473381119247393e-03 -3.3416130073691820e-04 0.0000000000000000e+00  -6.1436906413445732e-03 -3.6569860335519645e-04 0.0000000000000000e+00  -2.9123372341925812e-03 -3.8847806597697377e-04 0.0000000000000000e+00  2.3519784838932627e-04 -4.0207640720652530e-04 0.0000000000000000e+00  3.3841910738356346e-03 -4.0671254426271741e-04 0.0000000000000000e+00  6.6198911944766615e-03 -4.0322479333199308e-04 0.0000000000000000e+00  1.0030704462053633e-02 -3.9312669261968685e-04 0.0000000000000000e+00  1.0148448370711381e-02 -5.3282441525377754e-04 0.0000000000000000e+00  1.0032242135627353e-02 -6.7133911066647172e-04 0.0000000000000000e+00  7.3032724551671518e-03 -4.9520559170176330e-04 0.0000000000000000e+00  4.7659467644256149e-03 -3.2598819836077527e-04 0.0000000000000000e+00  2.3525623725945705e-03 -1.6170917257452526e-04 0.0000000000000000e+00  -5.0317267713841885e-12 -6.5946186798380934e-12 0.0000000000000000e+00  0.0000000000000000e+00 0.0000000000000000e+00 0.0000000000000000e+00  -2.1616036302362007e-03 -2.0515939486107399e-05 0.0000000000000000e+00  -4.3826663086349669e-03 -3.8650310537428757e-05 0.0000000000000000e+00  -6.7245130910397709e-03 -5.1794032897641994e-05 0.0000000000000000e+00  -9.2521804286079066e-03 -5.6878061075115214e-05 0.0000000000000000e+00  -9.3661889390734485e-03 -4.5356617121345468e-04 0.0000000000000000e+00  -9.2529900541316358e-03 -8.5134874192324911e-04 0.0000000000000000e+00  -5.9429659600733192e-03 -8.4241042319259168e-04 0.0000000000000000e+00  -2.8013230286825226e-03 -8.4149522735884978e-04 0.0000000000000000e+00  2.5813257588592250e-04 -8.4779594222643938e-04 0.0000000000000000e+00  3.3189922662868105e-03 -8.6133210587266407e-04 0.0000000000000000e+00  6.4648430368689589e-03 -8.8293429300548211e-04 0.0000000000000000e+00  9.7818689318329849e-03 -9.1425929792532672e-04 0.0000000000000000e+00  9.8953129625840887e-03 -5.3633218226852085e-04 0.0000000000000000e+00  9.7791703652494386e-03 -1.5780114271779247e-04 0.0000000000000000e+00  7.1176339657631899e-03 -1.2526630952688813e-04 0.0000000000000000e+00  4.6437293168762770e-03 -8.6580532168099533e-05 0.0000000000000000e+00  2.2918249712348057e-03 -4.4165601250183546e-05 0.0000000000000000e+00  0.0000000000000000e+00 0.0000000000000000e+00 0.0000000000000000e+00  0.0000000000000000e+00 0.0000000000000000e+00 0.0000000000000000e+00  -1.8516086745981729e-03 8.6297181093682046e-05 0.0000000000000000e+00  -3.7543099740162782e-03 1.7825826724443582e-04 0.0000000000000000e+00  -5.7606430238196348e-03 2.8178057799273232e-04 0.0000000000000000e+00  -7.9259249724387866e-03 4.0324629037344882e-04 0.0000000000000000e+00  -8.0241964465559649e-03 -4.6283737057904782e-04 0.0000000000000000e+00  -7.9276554023136915e-03 -1.3299441111943116e-03 0.0000000000000000e+00  -5.0736609989243424e-03 -1.2872276603782425e-03 0.0000000000000000e+00  -2.3638367329357761e-03 -1.2658347086791605e-03 0.0000000000000000e+00  2.7557811690840956e-04 -1.2647608186375627e-03 0.0000000000000000e+00  2.9163742871983356e-03 -1.2838880528999556e-03 0.0000000000000000e+00  5.6303489093309667e-03 -1.3239809999248198e-03 0.0000000000000000e+00  8.4912842432097613e-03 -1.3866926806596297e-03 0.0000000000000000e+00  8.5862272345748163e-03 -5.3412657534278112e-04 0.0000000000000000e+00  8.4840291759317558e-03 3.1870839467506917e-04 0.0000000000000000e+00  6.1770604240278431e-03 2.2003461211624338e-04 0.0000000000000000e+00  4.0308860194219458e-03 1.3788342867297702e-04 0.0000000000000000e+00  1.9895776469317744e-03 6.6347006966413645e-05 0.0000000000000000e+00  0.0000000000000000e+00 0.0000000000000000e+00 0.0000000000000000e+00  0.0000000000000000e+00 0.0000000000000000e+00 0.0000000000000000e+00  -1.3358258267069185e-03 1.7048175223214064e-04 0.0000000000000000e+00  -2.7086420543978077e-03 3.4893898038036047e-04 0.0000000000000000e+00  -4.1564667924280348e-03 5.4358399155469267e-04 0.0000000000000000e+00  -5.7191471414894746e-03 7.6312212629994259e-04 0.0000000000000000e+00  -5.7915779724308737e-03 -4.7607394837804735e-04 0.0000000000000000e+00  -5.7226959241476862e-03 -1.7160947930593721e-03 0.0000000000000000e+00  -3.6324463383861911e-03 -1.6472002303382705e-03 0.0000000000000000e+00  -1.6468738070300349e-03 -1.6093456424727539e-03 0.0000000000000000e+00  2.8770489738565337e-04 -1.6013738531792361e-03 0.0000000000000000e+00  2.2236379132991048e-03 -1.6230452793464963e-03 0.0000000000000000e+00  4.2132820558753222e-03 -1.6750369314042124e-03 0.0000000000000000e+00  6.3103464123177638e-03 -1.7589446597004955e-03 0.0000000000000000e+00  6.3762930533641281e-03 -5.2821841427021688e-04 0.0000000000000000e+00  6.2986320279161999e-03 7.0254080970296991e-04 0.0000000000000000e+00  4.5889416375643217e-03 4.9923838955572106e-04 0.0000000000000000e+00  2.9959321079554859e-03 3.1989404443513264e-04 0.0000000000000000e+00  1.4791543387224037e-03 1.5611460996982918e-04 0.0000000000000000e+00  0.0000000000000000e+00 0.0000000000000000e+00 0.0000000000000000e+00  0.0000000000000000e+00 0.0000000000000000e+00 0.0000000000000000e+00  -6.7043337118259292e-04 2.2279511343640141e-04 0.0000000000000000e+00  -1.3599394296459142e-03 4.5488885684119947e-04 0.0000000000000000e+00  -2.0881808890476595e-03 7.0582041477119310e-04 0.0000000000000000e+00  -2.8756889079418380e-03 9.8561853035370882e-04 0.0000000000000000e+00  -2.9153427739455630e-03 -4.9207439304349749e-04 0.0000000000000000e+00  -2.8813024072736359e-03 -1.9702421639177549e-03 0.0000000000000000e+00  -1.7772004270162880e-03 -1.8834862527236950e-03 0.0000000000000000e+00  -7.2805367101884400e-04 -1.8338047966856130e-03 0.0000000000000000e+00  2.9462263192809300e-04 -1.8199018887736099e-03 0.0000000000000000e+00  1.3186134794553827e-03 -1.8414207459224938e-03 0.0000000000000000e+00  2.3717089315355585e-03 -1.8989430944036138e-03 0.0000000000000000e+00  3.4824093447764519e-03 -1.9939905496845021e-03 0.0000000000000000e+00  3.5126887311558094e-03 -5.1996510381093549e-04 0.0000000000000000e+00  3.