<?xml version="1.0"?>
<VTKFile type="UnstructuredGrid"  version="0.1"  >
<UnstructuredGrid>
<Piece  NumberOfPoints="589" NumberOfCells="1080">
<Points>
<DataArray  type="Float64"  NumberOfComponents="3"  format="ascii">-9 0 0  -8 0 0  -7 0 0  -6 0 0  -5 0 0  -4 0 0  -3 0 0  -2 0 0  -1 0 0  0 0 0  1 0 0  2 0 0  3 0 0  4 0 0  5 0 0  6 0 0  7 0 0  8 0 0  9 0 0  -9 2 0  -8.000006287396809 1.999990582899523 0  -7.000013171662177 1.999982330852641 0  -6.000022077900336 1.999976190576901 0  -5.000036282219347 1.999972579990468 0  -4.000021471358848 1.999979517044785 0  -3.0000062691583 1.999986112229705 0  -1.999998870389931 1.999992310891996 0  -0.9999976639243434 1.999997215124419 0  -3.312495367649165e-07 1.999999382334632 0  0.9999967042845319 1.999997935209826 0  1.999996909606403 1.999993240727715 0  3.000002602950259 1.999987502800946 0  4.000014476350226 1.9999814290697 0  5.000031654713676 1.999979153533709 0  6.000019026948878 1.999979896030702 0  7.000011298592042 1.999984442521455 0  8.000005394950795 1.999991564837173 0  9 2 0  -9 4 0  -8.000010187199321 3.999976506088542 0  -7.000018255455469 3.999956214996841 0  -6.000022963424052 3.999942262601463 0  -5.000024560866246 3.999937635490264 0  -4.000002994889288 3.9999409526629 0  -2.999988547314276 3.999959574291795 0  -1.999984804689682 3.999983787761408 0  -0.9999903512149265 4.00000327861884 0  -9.536770089281792e-07 4.000011177587251 0  0.9999882075456987 4.000005159674282 0  1.999981854917191 3.999988790622261 0  2.999984708311964 3.99996664981764 0  3.999998204568932 3.999944473779785 0  5.000018921810828 3.999937353362217 0  6.000018456174996 3.999944576405826 0  7.000015298203475 3.999958582266084 0  8.000008754941927 3.999977878829856 0  9 4 0  -9 6 0  -8.00002256213074 5.999949620473062 0  -7.000036780341126 5.999904746645195 0  -6.000036291053949 5.999871035694802 0  -5.000019276264261 5.999853902231895 0  -3.99997717312525 5.999881578623078 0  -2.999958066491237 5.999939226212159 0  -1.999965736220127 5.9999996206401 0  -0.9999846999086898 6.000033174658742 0  -3.853984736832413e-06 6.000039949357358 0  0.9999789524459769 6.000029197068208 0  1.999965848173609 5.999999378856552 0  2.999960887623375 5.999948990598164 0  3.999970709593086 5.999896814503892 0  5.000006391758506 5.999871159358409 0  6.000028654692869 5.999882127612314 0  7.000032838309578 5.999911561592152 0  8.000020960690751 5.999952896665976 0  9 6 0  -9 8 0  -8.00006830536298 7.999900723488743 0  -7.000114130845008 7.999808639071359 0  -6.000115718147733 7.999733510956192 0  -5.000054492910026 7.999691421775108 0  -3.99997288103986 7.999818895574974 0  -2.999988173325354 7.999968626066934 0  -2.000019043387091 8.00004147790686 0  -1.000021819563093 8.000049624456421 0  -3.686985164971108e-06 8.000051972601137 0  1.00000990539173 8.00005929484616 0  2.000004332748888 8.000029141112941 0  2.999968998805355 7.999977820948603 0  3.999957008477491 7.999850349924076 0  5.000036730945441 7.999706475814537 0  6.000111161725918 7.999745832707709 0  7.000114613366158 7.999816949346099 0  8.000069490201142 7.999904851106437 0  9 8 0  -9 10 0  -8.000203910199007 9.999823104746707 0  -7.000368372172613 9.999644778463768 0  -6.00044633655053 9.999463949537889 0  -5.000372307473353 9.999280396574369 0  -4.000242702373899 9.99969246438598 0  -3.000264389520134 10.00004668215199 0  -2.000212218116423 9.999985175139006 0  -1.000098540919209 9.999965440979491 0  -1.497468364711958e-05 9.999960629791564 0  1.000067826900496 9.99996104867661 0  2.000177982065342 9.999959019676952 0  3.000274969538183 10.0000859140057 0  4.000262797548625 9.999752536723253 0  5.000409122314112 9.999312512632006 0  6.000477462352427 9.999482593472573 0  7.00039061019793 9.999655249405878 0  8.000215437340831 9.999827850403014 0  9 10 0  -9 12 0  -8.000497038953396 11.99975130995985 0  -7.00096816471904 11.99949109697101 0  -6.001384080059629 11.99920557894264 0  -5.001708451657978 11.9988755316609 0  -4.001641939051917 11.9996278736663 0  -3.001702292710003 12.00037276768097 0  -2.001172018365077 12.00028220819805 0  -1.00058130683238 12.00023287036656 0  3.242930712335563e-05 12.0002226861363 0  1.000652515348985 12.00025316518287 0  2.001264943796696 12.00033328538051 0  3.001842078163835 12.00048556137323 0  4.001778643434889 11.99968507562496 0  5.001820776875257 11.99887800606288 0  6.00146392734076 11.99920927142817 0  7.001019587735404 11.9994939027495 0  8.000522257910887 11.99975273797227 0  9 12 0  -9 14 0  -8.000893264199256 13.99972572014378 0  -7.001787908316143 13.99943883154433 0  -6.002686474769215 13.99912561153662 0  -5.003594531655872 13.99877015271005 0  -4.003603649644633 13.99965095244029 0  -3.003609520626267 14.0005428897984 0  -2.002374615828545 14.00041456247214 0  -1.001156634070582 14.00034386915839 0  5.455763713701323e-05 14.00032225785574 0  1.001268639263915 14.00034692313494 0  2.00249461681771 14.00041922414301 0  3.003739579195061 14.00054310420919 0  4.003749414404853 13.99965414215597 0  5.003754809217926 13.99877072028641 0  6.002799026368384 13.99912291916082 0  7.001859750096629 13.99943599959045 0  8.000928307437311 13.99972406009629 0  9 14 0  -9 16 0  -8.001283209582589 15.9997506409121 0  -7.00259071059565 15.99949205161008 0  -6.003948892741762 15.9992148397153 0  -5.005388456819789 15.99890944037796 0  -4.005439429483191 15.99966285680361 0  -3.00539155480683 16.00041230367674 0  -2.003511484056463 16.00031698918034 0  -1.001705664738557 16.00025902982181 0  6.515269175075435e-05 16.00023716522201 0  1.001838083713185 16.00025057278146 0  2.003650266033468 16.00029927998622 0  3.005541215180867 16.00038397695894 0  4.005595355594837 15.99963142212744 0  5.005548083990439 15.99887828825126 0  6.004065855885673 15.99919333598768 0  7.002667219592109 15.99947838270057 0  8.001321006363778 15.99974397326655 0  9 16 0  -9 18 0  -8.001575189302679 17.99981250259459 0  -7.003189348382288 17.99961984189601 0  -6.004883472502747 17.99941694607174 0  -5.006702597205811 17.99919895059817 0  -4.006779816304052 17.99966595729926 0  -3.006705685896251 18.00013236400906 0  -2.004353856360407 18.0000704999654 0  -1.002115867883469 18.00003033048359 0  6.724180936342103e-05 18.00001149664681 0  1.002251581732035 18.00001352483501 0  2.004493182119782 18.0000358562671 0  3.006850731730219 18.00007773663821 0  4.006929369159201 17.99961438508933 0  5.006854499990575 17.99915239849057 0  6.004995754818213 17.99938394653407 0  7.003263388305903 17.9995987068551 0  8.001611959944135 17.99980218411968 0  9 18 0  -9 20 0  -8.001710545377463 19.99989500523984 0  -7.003466653603211 19.99978859238878 0  -6.00531562968628 19.99967949472781 0  -5.007308264629315 19.99956674468456 0  -4.007396517924057 19.99966635775364 0  -3.007309635046973 19.99976531959319 0  -2.004743700217403 19.99973760247035 0  -1.00230790547606 19.99971666965243 0  6.43487388438402e-05 19.9997027599568 0  1.002437250015223 19.99969563113939 0  2.004874951056414 19.99969457655241 0  3.007443956777613 19.99969838317016 0  4.007532510022137 19.99960588081279 0  5.00744514271382 19.99951432604173 0  6.005417501194406 19.99964176172993 0  7.003534182413296 19.99976418897833 0  8.001744191975336 19.99988302867647 0  8.99999999999496 19.99999999999313 0  -9 22 0  -8.001662961566419 21.99998316619541 0  -7.003371022733955 21.99996807906225 0  -6.00517070067709 21.9999566559931 0  -5.007111337851534 21.99995115935616 0  -4.007197822251364 21.99966314070952 0  -3.007112184549771 21.99937440870648 0  -2.004615857284816 21.99937769233903 0  -1.002247138931802 21.99937505192484 0  5.885991156225167e-05 21.99936703503596 0  1.002365057724949 21.99935356524169 0  2.004734348762079 21.99933395379315 0  3.007231551456069 21.9993068879494 0  4.007316727572857 21.99960315412131 0  5.007229665398 21.99989997940375 0  6.005259418568536 21.99991960297783 0  7.003430139485032 21.9999440071941 0  8.001692506467201 21.99997131911615 0  9 22 0  -9 24 0  -8.001434272208408 24.00006434105794 0  -7.002907428194924 24.00013290878405 0  -6.004459445674754 24.00021010580334 0  -5.006132426670081 24.00030069686455 0  -4.006207029808863 23.99965661363929 0  -3.006133632659653 23.99901189909856 0  -2.003980367238942 23.99904136848597 0  -1.001936781863468 23.99905483606677 0  5.263988261554878e-05 23.99905301625412 0  1.002041915794334 23.99903595215527 0  2.004085044008265 23.99900301814258 0  3.006237482590725 23.99895291509895 0  4.006308704950456 23.99960477385086 0  5.00623246808897 24.00025697237859 0  6.004535026180421 24.000178306181 0  7.002958061502024 24.00011218234323 0  8.001459655932042 24.000054120075 0  9 24 0  -9 26 0  -8.001049239517332 26.00012862374771 0  -7.002126800251703 26.00026322947039 0  -6.003261771125489 26.00040997782189 0  -5.00448464941213 26.00057539792135 0  -4.004539674561097 25.99964730214725 0  -3.004486827768583 25.99871872430683 0  -2.002908844781277 25.99876880200396 0  -1.001410987254476 25.99879551820834 0  4.711738203416628e-05 25.99879971935457 0  1.001504821058936 25.99878155604467 0  2.003001455953355 25.99874048355992 0  3.004577336461031 25.99867526075594 0  4.004626778195442 25.99960938335269 0  5.004569356575491 26.00054367319647 0  6.003326296613078 26.00038684164489 0  7.00217027488722 26.00024811828302 0  8.001071107239669 26.00012116186874 0  9 26 0  -9 28 0  -8.000549988139236 28.00016899512642 0  -7.00111482901915 28.00034498904738 0  -6.001709805709809 28.00053516177615 0  -5.00235088561325 28.00074706097898 0  -4.002381087220287 27.99963611157975 0  -3.002354284544309 27.99852491602184 0  -2.001519449645818 27.99858941671834 0  -1.000727371127032 27.99862599143468 0  4.331640894299265e-05 27.99863560535548 0  1.000813437469879 27.99861851313929 0  2.001603794405137 27.99857425896781 0  3.002435686425733 27.99850167533045 0  4.002458343516801 27.99961598272179 0  5.002425297296651 28.00073037102422 0  6.00176690625296 28.0005229647164 0  7.0011534959153 28.00033700976953 0  8.000569496216805 28.0001650
[...]
<PointData  Vectors="f_42"> 
<DataArray  type="Float64"  Name="f_42"  NumberOfComponents="3" format="ascii">0.0000000000000000e+00 0.0000000000000000e+00 0.0000000000000000e+00  0.0000000000000000e+00 0.0000000000000000e+00 0.0000000000000000e+00  0.0000000000000000e+00 0.0000000000000000e+00 0.0000000000000000e+00  0.0000000000000000e+00 0.0000000000000000e+00 0.0000000000000000e+00  0.0000000000000000e+00 0.0000000000000000e+00 0.0000000000000000e+00  0.0000000000000000e+00 0.0000000000000000e+00 0.0000000000000000e+00  0.0000000000000000e+00 0.0000000000000000e+00 0.0000000000000000e+00  0.0000000000000000e+00 0.0000000000000000e+00 0.0000000000000000e+00  0.0000000000000000e+00 0.0000000000000000e+00 0.0000000000000000e+00  0.0000000000000000e+00 0.0000000000000000e+00 0.0000000000000000e+00  0.0000000000000000e+00 0.0000000000000000e+00 0.0000000000000000e+00  0.0000000000000000e+00 0.0000000000000000e+00 0.0000000000000000e+00  0.0000000000000000e+00 0.0000000000000000e+00 0.0000000000000000e+00  0.0000000000000000e+00 0.0000000000000000e+00 0.0000000000000000e+00  0.0000000000000000e+00 0.0000000000000000e+00 0.0000000000000000e+00  0.0000000000000000e+00 0.0000000000000000e+00 0.0000000000000000e+00  0.0000000000000000e+00 0.0000000000000000e+00 0.0000000000000000e+00  0.0000000000000000e+00 0.0000000000000000e+00 0.0000000000000000e+00  0.0000000000000000e+00 0.0000000000000000e+00 0.0000000000000000e+00  0.0000000000000000e+00 0.0000000000000000e+00 0.0000000000000000e+00  -6.2873968164151677e-06 -9.4171004767800501e-06 0.0000000000000000e+00  -1.3171662175057252e-05 -1.7669147358170977e-05 0.0000000000000000e+00  -2.2077900334172906e-05 -2.3809423098988057e-05 0.0000000000000000e+00  -3.6282219349246546e-05 -2.7420009533428946e-05 0.0000000000000000e+00  -2.1471358849011783e-05 -2.0482955214740369e-05 0.0000000000000000e+00  -6.2691583035508815e-06 -1.3887770294649935e-05 0.0000000000000000e+00  1.1296100703099364e-06 -7.6891080048062403e-06 0.0000000000000000e+00  2.3360756563430079e-06 -2.7848755810766070e-06 0.0000000000000000e+00  -3.3124953676491645e-07 -6.1766536868142358e-07 0.0000000000000000e+00  -3.2957154674569090e-06 -2.0647901738951177e-06 0.0000000000000000e+00  -3.0903935990826139e-06 -6.7592722840383719e-06 0.0000000000000000e+00  2.6029502604917300e-06 -1.2497199055409069e-05 0.0000000000000000e+00  1.4476350226956548e-05 -1.8570930300040555e-05 0.0000000000000000e+00  3.1654713672967307e-05 -2.0846466290598615e-05 0.0000000000000000e+00  1.9026948874273171e-05 -2.0103969298601836e-05 0.0000000000000000e+00  1.1298592042798424e-05 -1.5557478545084327e-05 0.0000000000000000e+00  5.3949507900411476e-06 -8.4351628278044146e-06 0.0000000000000000e+00  0.0000000000000000e+00 0.0000000000000000e+00 0.0000000000000000e+00  0.0000000000000000e+00 0.0000000000000000e+00 0.0000000000000000e+00  -1.0187199316741893e-05 -2.3493911458917544e-05 0.0000000000000000e+00  -1.8255455461833248e-05 -4.3785003159760263e-05 0.0000000000000000e+00  -2.2963424051338298e-05 -5.7737398538502587e-05 0.0000000000000000e+00  -2.4560866250662305e-05 -6.2364509735028927e-05 0.0000000000000000e+00  -2.9948892879043115e-06 -5.9047337099326899e-05 0.0000000000000000e+00  1.1452685724085731e-05 -4.0425708203088899e-05 0.0000000000000000e+00  1.5195310317887192e-05 -1.6212238592747908e-05 0.0000000000000000e+00  9.6487850734000166e-06 3.2786188408401783e-06 0.0000000000000000e+00  -9.5367700892817923e-07 1.1177587251292418e-05 0.0000000000000000e+00  -1.1792454301513926e-05 5.1596742852839497e-06 0.0000000000000000e+00  -1.8145082808517279e-05 -1.1209377739480034e-05 0.0000000000000000e+00  -1.5291688031782132e-05 -3.3350182360346839e-05 0.0000000000000000e+00  -1.7954310703181410e-06 -5.5526220215214699e-05 0.0000000000000000e+00  1.8921810821386826e-05 -6.2646637781436329e-05 0.0000000000000000e+00  1.8456174993094601e-05 -5.5423594173953767e-05 0.0000000000000000e+00  1.5298203473343543e-05 -4.1417733914909938e-05 0.0000000000000000e+00  8.7549419394926297e-06 -2.2121170143452689e-05 0.0000000000000000e+00  0.0000000000000000e+00 0.0000000000000000e+00 0.0000000000000000e+00  0.0000000000000000e+00 0.0000000000000000e+00 0.0000000000000000e+00  -2.2562130741583807e-05 -5.0379526941031194e-05 0.0000000000000000e+00  -3.6780341125723254e-05 -9.5253354801903804e-05 0.0000000000000000e+00  -3.6291053952350110e-05 -1.2896430520045103e-04 0.0000000000000000e+00  -1.9276264259811841e-05 -1.4609776810216407e-04 0.0000000000000000e+00  2.2826874751298385e-05 -1.1842137691781961e-04 0.0000000000000000e+00  4.1933508762033939e-05 -6.0773787836962602e-05 0.0000000000000000e+00  3.4263779873253162e-05 -3.7935990165171090e-07 0.0000000000000000e+00  1.5300091310557588e-05 3.3174658742962635e-05 0.0000000000000000e+00  -3.8539847368324127e-06 3.9949357356889773e-05 0.0000000000000000e+00  -2.1047554023221871e-05 2.9197068209868802e-05 0.0000000000000000e+00  -3.4151826390428912e-05 -6.2114345044016441e-07 0.0000000000000000e+00  -3.9112376626060492e-05 -5.1009401830292638e-05 0.0000000000000000e+00  -2.9290406915545729e-05 -1.0318549610673754e-04 0.0000000000000000e+00  6.3917585048066580e-06 -1.2884064159319569e-04 0.0000000000000000e+00  2.8654692864427318e-05 -1.1787238768407627e-04 0.0000000000000000e+00  3.2838309578178318e-05 -8.8438407847859525e-05 0.0000000000000000e+00  2.0960690752216757e-05 -4.7103334023003429e-05 0.0000000000000000e+00  0.0000000000000000e+00 0.0000000000000000e+00 0.0000000000000000e+00  0.0000000000000000e+00 0.0000000000000000e+00 0.0000000000000000e+00  -6.8305362985450390e-05 -9.9276511255887658e-05 0.0000000000000000e+00  -1.1413084500879084e-04 -1.9136092864265264e-04 0.0000000000000000e+00  -1.1571814773732429e-04 -2.6648904381342415e-04 0.0000000000000000e+00  -5.4492910028839746e-05 -3.0857822488553787e-04 0.0000000000000000e+00  2.7118960140793613e-05 -1.8110442502208349e-04 0.0000000000000000e+00  1.1826674645168298e-05 -3.1373933065593112e-05 0.0000000000000000e+00  -1.9043387090902403e-05 4.1477906863040252e-05 0.0000000000000000e+00  -2.1819563092998616e-05 4.9624456421803792e-05 0.0000000000000000e+00  -3.6869851649711080e-06 5.1972601137190729e-05 0.0000000000000000e+00  9.9053917310647318e-06 5.9294846157111878e-05 0.0000000000000000e+00  4.3327488865392048e-06 2.9141112937223671e-05 0.0000000000000000e+00  -3.1001194646215443e-05 -2.2179051393920887e-05 0.0000000000000000e+00  -4.2991522509047181e-05 -1.4965007592494060e-04 0.0000000000000000e+00  3.6730945436752719e-05 -2.9352418546682091e-04 0.0000000000000000e+00  1.1116172592026607e-04 -2.5416729228964319e-04 0.0000000000000000e+00  1.1461336615807907e-04 -1.8305065390780239e-04 0.0000000000000000e+00  6.9490201138362192e-05 -9.5148893563977549e-05 0.0000000000000000e+00  0.0000000000000000e+00 0.0000000000000000e+00 0.0000000000000000e+00  0.0000000000000000e+00 0.0000000000000000e+00 0.0000000000000000e+00  -2.0391019900875472e-04 -1.7689525329355298e-04 0.0000000000000000e+00  -3.6837217261033060e-04 -3.5522153623169888e-04 0.0000000000000000e+00  -4.4633655052882839e-04 -5.3605046210761405e-04 0.0000000000000000e+00  -3.7230747335511151e-04 -7.1960342563309591e-04 0.0000000000000000e+00  -2.4270237389471580e-04 -3.0753561401666130e-04 0.0000000000000000e+00  -2.6438952013584332e-04 4.6682151991507079e-05 0.0000000000000000e+00  -2.1221811642390157e-04 -1.4824860993366691e-05 0.0000000000000000e+00  -9.8540919209831558e-05 -3.4559020505742868e-05 0.0000000000000000e+00  -1.4974683647119578e-05 -3.9370208445825105e-05 0.0000000000000000e+00  6.7826900497258219e-05 -3.8951323390489314e-05 0.0000000000000000e+00  1.7798206534282884e-04 -4.0980323054449982e-05 0.0000000000000000e+00  2.7496953818253577e-04 8.5914005695061370e-05 0.0000000000000000e+00  2.6279754862915767e-04 -2.4746327674839879e-04 0.0000000000000000e+00  4.0912231411732399e-04 -6.8748736799827104e-04 0.0000000000000000e+00  4.7746235242912316e-04 -5.1740652742864404e-04 0.0000000000000000e+00  3.9061019792663868e-04 -3.4475059412304449e-04 0.0000000000000000e+00  2.1543734083097417e-04 -1.7214959698417525e-04 0.0000000000000000e+00  0.0000000000000000e+00 0.0000000000000000e+00 0.0000000000000000e+00  0.0000000000000000e+00 0.0000000000000000e+00 0.0000000000000000e+00  -4.9703895339967008e-04 -2.4869004014664483e-04 0.0000000000000000e+00  -9.6816471903893504e-04 -5.0890302898635997e-04 0.0000000000000000e+00  -1.3840800596263217e-03 -7.9442105735430145e-04 0.0000000000000000e+00  -1.7084516579812324e-03 -1.1244683390974320e-03 0.0000000000000000e+00  -1.6419390519186899e-03 -3.7212633370473580e-04 0.0000000000000000e+00  -1.7022927100032849e-03 3.7276768097511113e-04 0.0000000000000000e+00  -1.1720183650765770e-03 2.8220819804879627e-04 0.0000000000000000e+00  -5.8130683237975363e-04 2.3287036655649933e-04 0.0000000000000000e+00  3.2429307123355635e-05 2.2268613630396382e-04 0.0000000000000000e+00  6.5251534898491355e-04 2.5316518286899888e-04 0.0000000000000000e+00  1.2649437966950935e-03 3.3328538050734553e-04 0.0000000000000000e+00  1.8420781638354559e-03 4.8556137322475912e-04 0.0000000000000000e+00  1.7786434348920196e-03 -3.1492437503492576e-04 0.0000000000000000e+00  1.8207768752528694e-03 -1.1219939371074209e-03 0.0000000000000000e+00  1.4639273407589728e-03 -7.9072857182537295e-04 0.0000000000000000e+00  1.0195877354082321e-03 -5.0609725049874192e-04 0.0000000000000000e+00  5.2225791088956737e-04 -2.4726202773097636e-04 0.0000000000000000e+00  0.0000000000000000e+00 0.0000000000000000e+00 0.0000000000000000e+00  0.0000000000000000e+00 0.0000000000000000e+00 0.0000000000000000e+00  -8.9326419925829861e-04 -2.7427985622063491e-04 0.0000000000000000e+00  -1.7879083161446896e-03 -5.6116845567013207e-04 0.0000000000000000e+00  -2.6864747692172375e-03 -8.7438846337854965e-04 0.0000000000000000e+00  -3.5945316558735883e-03 -1.2298472899467756e-03 0.0000000000000000e+00  -3.6036496446325270e-03 -3.4904755969992476e-04 0.0000000000000000e+00  -3.6095206262649030e-03 5.4288979840090839e-04 0.0000000000000000e+00  -2.3746158285461671e-03 4.1456247213835374e-04 0.0000000000000000e+00  -1.1566340705807558e-03 3.4386915838161529e-04 0.0000000000000000e+00  5.4557637137013226e-05 3.2225785573760274e-04 0.0000000000000000e+00  1.2686392639142808e-03 3.4692313494221567e-04 0.0000000000000000e+00  2.4946168177099148e-03 4.1922414300156664e-04 0.0000000000000000e+00  3.7395791950614347e-03 5.4310420918528670e-04 0.0000000000000000e+00  3.7494144048506846e-03 -3.4585784403423446e-04 0.0000000000000000e+00  3.7548092179275384e-03 -1.2292797135884641e-03 0.0000000000000000e+00  2.7990263683835286e-03 -8.7708083918088160e-04 0.0000000000000000e+00  1.8597500966291572e-03 -5.6400040954978151e-04 0.0000000000000000e+00  9.2830743730617723e-04 -2.7593990370763911e-04 0.0000000000000000e+00  0.0000000000000000e+00 0.0000000000000000e+00 0.0000000000000000e+00  0.0000000000000000e+00 0.0000000000000000e+00 0.0000000000000000e+00  -1.2832095825898446e-03 -2.4935908791426088e-04 0.0000000000000000e+00  -2.5907105956477052e-03 -5.0794838991757049e-04 0.0000000000000000e+00  -3.9488927417598079e-03 -7.8516028470000014e-04 0.0000000000000000e+00  -5.3884568197899649e-03 -1.0905596220464196e-03 0.0000000000000000e+00  -5.4394294831867501e-03 -3.3714319638877632e-04 0.0000000000000000e+00  -5.3915548068302803e-03 4.1230367671891505e-04 0.0000000000000000e+00  -3.5114840564622789e-03 3.1698918034784950e-04 0.0000000000000000e+00  -1.7056647385567947e-03 2.5902982180790935e-04 0.0000000000000000e+00  6.5152691750754350e-05 2.3716522202298359e-04 0.0000000000000000e+00  1.8380837131849082e-03 2.5057278147169526e-04 0.0000000000000000e+00  3.6502660334666267e-03 2.9927998621911555e-04 0.0000000000000000e+00  5.5412151808699080e-03 3.8397695893552128e-04 0.0000000000000000e+00  5.5953555948363631e-03 -3.6857787255301246e-04 0.0000000000000000e+00  5.5480839904408046e-03 -1.1217117487542572e-03 0.0000000000000000e+00  4.0658558856779764e-03 -8.0666401232446817e-04 0.0000000000000000e+00  2.6672195921062514e-03 -5.2161729943135378e-04 0.0000000000000000e+00  1.3210063637764536e-03 -2.5602673344930343e-04 0.0000000000000000e+00  0.0000000000000000e+00 0.0000000000000000e+00 0.0000000000000000e+00  0.0000000000000000e+00 0.0000000000000000e+00 0.0000000000000000e+00  -1.5751893026645261e-03 -1.8749740540113403e-04 0.0000000000000000e+00  -3.1893483822888389e-03 -3.8015810398166688e-04 0.0000000000000000e+00  -4.8834725027443538e-03 -5.8305392826448019e-04 0.0000000000000000e+00  -6.7025972058121974e-03 -8.0104940182984259e-04 0.0000000000000000e+00  -6.7798163040505965e-03 -3.3404270074262245e-04 0.0000000000000000e+00  -6.7056858962519341e-03 1.3236400906589004e-04 0.0000000000000000e+00  -4.3538563604070355e-03 7.0499965401474572e-05 0.0000000000000000e+00  -2.1158678834711413e-03 3.0330483590440607e-05 0.0000000000000000e+00  6.7241809363421026e-05 1.1496646803612021e-05 0.0000000000000000e+00  2.2515817320348207e-03 1.3524835019996819e-05 0.0000000000000000e+00  4.4931821197786784e-03 3.5856267094822107e-05 0.0000000000000000e+00  6.8507317302173541e-03 7.7736638199061295e-05 0.0000000000000000e+00  6.9293691591999435e-03 -3.8561491067716974e-04 0.0000000000000000e+00  6.8544999905760934e-03 -8.4760150943994771e-04 0.0000000000000000e+00  4.9957548182103049e-03 -6.1605346593870470e-04 0.0000000000000000e+00  3.2633883059088385e-03 -4.0129314489306250e-04 0.0000000000000000e+00  1.6119599441365260e-03 -1.9781588031661976e-04 0.0000000000000000e+00  0.0000000000000000e+00 0.0000000000000000e+00 0.0000000000000000e+00  0.0000000000000000e+00 0.0000000000000000e+00 0.0000000000000000e+00  -1.7105453774565599e-03 -1.0499476015619494e-04 0.0000000000000000e+00  -3.4666536032096833e-03 -2.1140761122411629e-04 0.0000000000000000e+00  -5.3156296862795285e-03 -3.2050527216079662e-04 0.0000000000000000e+00  -7.3082646293143099e-03 -4.3325531544067148e-04 0.0000000000000000e+00  -7.3965179240548509e-03 -3.3364224634352234e-04 0.0000000000000000e+00  -7.3096350469739084e-03 -2.3468040679859456e-04 0.0000000000000000e+00  -4.7437002174031840e-03 -2.6239752963721732e-04 0.0000000000000000e+00  -2.3079054760603416e-03 -2.8333034756167322e-04 0.0000000000000000e+00  6.4348738843840195e-05 -2.9724004318596814e-04 0.0000000000000000e+00  2.4372500152229216e-03 -3.0436886061715101e-04 0.0000000000000000e+00  4.8749510564155872e-03 -3.0542344760547973e-04 0.0000000000000000e+00  7.4439567776136608e-03 -3.0161682986049444e-04 0.0000000000000000e+00  7.5325100221393573e-03 -3.9411918721504480e-04 0.0000000000000000e+00  7.4451427138216286e-03 -4.8567395826384067e-04 0.0000000000000000e+00  5.4175011944051152e-03 -3.5823827006481072e-04 0.0000000000000000e+00  3.5341824132946714e-03 -2.3581102166602634e-04 0.0000000000000000e+00  1.7441919753236944e-03 -1.1697132353510471e-04 0.0000000000000000e+00  -5.0453011634647222e-12 -6.8648463110628973e-12 0.0000000000000000e+00  0.0000000000000000e+00 0.0000000000000000e+00 0.0000000000000000e+00  -1.6629615664154782e-03 -1.6833804592324945e-05 0.0000000000000000e+00  -3.3710227339579803e-03 -3.1920937750382289e-05 0.0000000000000000e+00  -5.1707006770880274e-03 -4.3344006893186417e-05 0.0000000000000000e+00  -7.1113378515309739e-03 -4.8840643828949443e-05 0.0000000000000000e+00  -7.1978222513613341e-03 -3.3685929045122352e-04 0.0000000000000000e+00  -7.1121845497732969e-03 -6.2559129351227850e-04 0.0000000000000000e+00  -4.6158572848144378e-03 -6.2230766094346847e-04 0.0000000000000000e+00  -2.2471389318026920e-03 -6.2494807515006332e-04 0.0000000000000000e+00  5.8859911562251674e-05 -6.3296496405871607e-04 0.0000000000000000e+00  2.3650577249494801e-03 -6.4643475832441659e-04 0.0000000000000000e+00  4.7343487620781248e-03 -6.6604620686225486e-04 0.0000000000000000e+00  7.2315514560681174e-03 -6.9311205060604102e-04 0.0000000000000000e+00  7.3167275728601086e-03 -3.9684587867059435e-04 0.0000000000000000e+00  7.2296653980013885e-03 -1.0002059625859805e-04 0.0000000000000000e+00  5.2594185685339899e-03 -8.0397022163097254e-05 0.0000000000000000e+00  3.4301394850296211e-03 -5.5992805882414581e-05 0.0000000000000000e+00  1.6925064671940869e-03 -2.8680883846899450e-05 0.0000000000000000e+00  0.0000000000000000e+00 0.0000000000000000e+00 0.0000000000000000e+00  0.0000000000000000e+00 0.0000000000000000e+00 0.0000000000000000e+00  -1.4342722084024907e-03 6.4341057943039350e-05 0.0000000000000000e+00  -2.9074281949248112e-03 1.3290878404688595e-04 0.0000000000000000e+00  -4.4594456747570465e-03 2.1010580334112410e-04 0.0000000000000000e+00  -6.1324266700756450e-03 3.0069686455003083e-04 0.0000000000000000e+00  -6.2070298088632994e-03 -3.4338636070756407e-04 0.0000000000000000e+00  -6.1336326596517386e-03 -9.8810090145389569e-04 0.0000000000000000e+00  -3.9803672389387128e-03 -9.5863151401852636e-04 0.0000000000000000e+00  -1.9367818634679064e-03 -9.4516393322421292e-04 0.0000000000000000e+00  5.2639882615548785e-05 -9.4698374588170642e-04 0.0000000000000000e+00  2.0419157943332065e-03 -9.6404784473404248e-04 0.0000000000000000e+00  4.0850440082670940e-03 -9.9698185739528398e-04 0.0000000000000000e+00  6.2374825907243686e-03 -1.0470849010507845e-03 0.0000000000000000e+00  6.3087049504539526e-03 -3.9522614914571774e-04 0.0000000000000000e+00  6.2324680889702163e-03 2.5697237858673938e-04 0.0000000000000000e+00  4.5350261804249946e-03 1.7830618100163041e-04 0.0000000000000000e+00  2.9580615020251368e-03 1.1218234322032701e-04 0.0000000000000000e+00  1.4596559320455621e-03 5.4120075018046398e-05 0.0000000000000000e+00  0.0000000000000000e+00 0.0000000000000000e+00 0.0000000000000000e+00  0.0000000000000000e+00 0.0000000000000000e+00 0.0000000000000000e+00  -1.0492395173301603e-03 1.2862374770262005e-04 0.0000000000000000e+00  -2.1268002517049944e-03 2.6322947039898910e-04 0.0000000000000000e+00  -3.2617711254881296e-03 4.0997782187632997e-04 0.0000000000000000e+00  -4.4846494121277601e-03 5.7539792135002780e-04 0.0000000000000000e+00  -4.5396745610979108e-03 -3.5269785274618770e-04 0.0000000000000000e+00  -4.4868277685804403e-03 -1.2812756931697014e-03 0.0000000000000000e+00  -2.9088447812778209e-03 -1.2311979960290857e-03 0.0000000000000000e+00  -1.4109872544750240e-03 -1.2044817916548513e-03 0.0000000000000000e+00  4.7117382034166281e-05 -1.2002806454257302e-03 0.0000000000000000e+00  1.5048210589355907e-03 -1.2184439553198040e-03 0.0000000000000000e+00  3.0014559533555461e-03 -1.2595164401039884e-03 0.0000000000000000e+00  4.5773364610294095e-03 -1.3247392440737414e-03 0.0000000000000000e+00  4.6267781954418014e-03 -3.9061664731457774e-04 0.0000000000000000e+00  4.5693565754878970e-03 5.4367319647277300e-04 0.0000000000000000e+00  3.3262966130799274e-03 3.8684164488301116e-04 0.0000000000000000e+00  2.1702748872192805e-03 2.4811828302288158e-04 0.0000000000000000e+00  1.0711072396720508e-03 1.2116186876238778e-04 0.0000000000000000e+00  0.0000000000000000e+00 0.0000000000000000e+00 0.0000000000000000e+00  0.0000000000000000e+00 0.0000000000000000e+00 0.0000000000000000e+00  -5.4998813923091939e-04 1.6899512642141906e-04 0.0000000000000000e+00  -1.1148290191515110e-03 3.4498904737403902e-04 0.0000000000000000e+00  -1.7098057098072657e-03 5.3516177615735869e-04 0.0000000000000000e+00  -2.3508856132518114e-03 7.4706097897878217e-04 0.0000000000000000e+00  -2.3810872202909461e-03 -3.6388842025971563e-04 0.0000000000000000e+00  -2.3542845443073539e-03 -1.4750839781824253e-03 0.0000000000000000e+00  -1.5194496458179119e-03 -1.4105832816846775e-03 0.0000000000000000e+00  -7.2737112703208818e-04 -1.3740085653319470e-03 0.0000000000000000e+00  4.3316408942992645e-05 -1.3643946445273049e-03 0.0000000000000000e+00  8.1343746987908841e-04 -1.3814868607028245e-03 0.0000000000000000e+00  1.6037944051383929e-03 -1.4257410321914031e-03 0.0000000000000000e+00  2.4356864257375379e-03 -1.4983246695664813e-03 0.0000000000000000e+00  2.4583435167997063e-03 -3.8401727820917055e-04 0.0000000000000000e+00 