<?xml version="1.0"?>
<VTKFile type="UnstructuredGrid"  version="0.1"  >
<UnstructuredGrid>
<Piece  NumberOfPoints="589" NumberOfCells="1080">
<Points>
<DataArray  type="Float64"  NumberOfComponents="3"  format="ascii">-9 0 0  -8 0 0  -7 0 0  -6 0 0  -5 0 0  -4 0 0  -3 0 0  -2 0 0  -1 0 0  0 0 0  1 0 0  2 0 0  3 0 0  4 0 0  5 0 0  6 0 0  7 0 0  8 0 0  9 0 0  -9 2 0  -8.000007110880157 1.999988831942592 0  -7.000014930596689 1.999979081859794 0  -6.000025160129545 1.999971906315561 0  -5.000041715418147 1.999967828299144 0  -4.000024218837025 1.99997580744356 0  -3.000006258621509 1.999983607423228 0  -1.999997603947386 1.99999102527198 0  -0.9999963873255294 1.999996885735552 0  1.958922630732481e-07 1.999999425038755 0  0.9999964974445259 1.999997548766027 0  1.999996764060322 1.999991674901396 0  3.000003863840316 1.999984463068632 0  4.000018727204459 1.999976682586815 0  5.000040397609212 1.999973276254384 0  6.00002453799448 1.999974472047765 0  7.000014669773645 1.99998034044388 0  8.000007026458448 1.999989366163433 0  9 2 0  -9.000000000004983 4 0  -8.000011386266962 3.999971992708053 0  -7.000020221985556 3.999947866097913 0  -6.000025017167501 3.999931422812089 0  -5.000026089502352 3.999926290157075 0  -4.000000281015063 3.999929957297698 0  -2.999983044285442 3.999952244399515 0  -1.999978758020641 3.999981335685051 0  -0.9999857120178824 4.000004748190979 0  1.233008274381245e-06 4.000014095642341 0  0.9999879440591229 4.000006439099422 0  1.999980213681066 3.999986054242356 0  2.999983857857302 3.999958453435001 0  4.000000674217657 3.999930539121759 0  5.000026436283898 3.999920682416189 0  6.000025110236911 3.999930254219509 0  7.000020439700696 3.999948052441523 0  8.00001158514837 3.999972300732336 0  9 4 0  -9 6 0  -8.00002586293029 5.999939634374998 0  -7.000041675450754 5.999885920412896 0  -6.000039765540266 5.999845700073531 0  -5.000017922353656 5.99982554464943 0  -3.999967089985645 5.999858597409839 0  -2.999944048024735 5.999928002141018 0  -1.999953337795992 6.000000840493201 0  -0.9999763698649596 6.000041384113135 0  2.323827543967215e-07 6.000049417457959 0  0.9999790932512501 6.000035994458472 0  1.999962913638422 5.999999017133781 0  2.999956813552894 5.999936533830721 0  3.999968986393521 5.999871586908801 0  5.000012960346834 5.999838976452247 0  6.000039060385391 5.999853133961016 0  7.000042944627801 5.999889967907043 0  8.000027064670402 5.999941434955968 0  9 6 0  -9 8 0  -8.000080529837032 7.999880686044117 0  -7.000134012123956 7.999770018479786 0  -6.000134242986809 7.999679735811188 0  -5.000058779714781 7.999629176352196 0  -3.999960184455255 7.999782593085652 0  -2.999978095678127 7.999963033336449 0  -2.000014938208979 8.000051195254303 0  -1.00001812141827 8.00006152205836 0  3.760558898199898e-06 8.000064587403665 0  1.000019921833858 8.000073548189583 0  2.000012663060376 8.00003601613272 0  2.999968960302713 7.999972237038473 0  3.99995394167935 7.999814530183806 0  5.000051898148429 7.999636551858231 0  6.000141860434776 7.999685333717129 0  7.000144490928094 7.999773370743239 0  8.000087269749587 7.999882192184738 0  9 8 0  -9 10 0  -8.000243301491027 9.999787221014532 0  -7.000439263671222 9.999572683719267 0  -6.000531408589663 9.999355055024456 0  -5.000441053947615 9.999134015429235 0  -4.000284785797409 9.999629400624196 0  -3.000309871953313 10.00005550495788 0  -2.000246384481914 9.999982917682921 0  -1.000109169718129 9.999959616882526 0  -7.790840885643609e-06 9.999953908430703 0  1.000093039464014 9.999954245179717 0  2.000227778178465 9.999951160945722 0  3.0003456753752 10.00010654634568 0  4.000329924870304 9.999694769058824 0  5.000510538094003 9.999151364839472 0  6.000593798877039 9.999360658965049 0  7.000485324364203 9.999573717693583 0  8.000267590708248 9.999787055783097 0  9 10 0  -9 12 0  -8.00059503436673 11.99970093627087 0  -7.001159136865576 11.99938796277261 0  -6.001657320926792 11.999044450596 0  -5.002046121675248 11.9986472275138 0  -4.001966131543668 11.99955024126137 0  -3.002037681454811 12.00044410366483 0  -2.001387729543409 12.0003377740432 0  -1.000666235629086 12.00028118281637 0  8.184470921001471e-05 12.000271956084 0  1.000836228836645 12.00031212939638 0  2.001579467288378 12.0004128620674 0  3.00227693258404 12.00060190937623 0  4.002197590735229 11.9996114062671 0  5.002250755490305 11.99861254416563 0  6.001811742806122 11.99902126447788 0  7.001262725633533 11.99937315506082 0  8.00064705290017 11.99969362368415 0  9 12 0  -9 14 0  -8.001069677860789 13.99967045679594 0  -7.002141374921496 13.99932568436682 0  -6.003218525725396 13.99894911048775 0  -5.004308183994564 13.99852152698051 0  -4.004319461217815 13.99957618574401 0  -3.004325283857803 14.00064406348496 0  -2.002816787567021 14.00049398357808 0  -1.001330304287028 14.00041356286297 0  0.0001465011681523021 14.00039265714839 0  1.001625266649845 14.00042809263509 0  2.00311661568236 14.00052176117213 0  3.004628616087844 14.00067870254832 0  4.004639052492749 13.9995725422651 0  5.004647207175241 13.99847299271207 0  6.003467646777342 13.99890986341372 0  7.002305542361504 13.99929868440039 0  8.001151282266722 13.99965678259497 0  9 14 0  -9 16 0  -8.001535131040363 15.99970100484102 0  -7.00309996168529 15.99939084645562 0  -6.004726741688653 15.99905816255881 0  -5.006452901124023 15.99869136889635 0  -4.006514765148663 15.99958890946293 0  -3.00645572865032 16.00048156350353 0  -2.004160701337997 16.00037246487656 0  -1.001956913311893 16.0003086171692 0  0.0002034115059754601 16.00028865967593 0  1.002365393998476 16.00031178276829 0  2.004574118639476 16.0003782297562 0  3.006877505862173 16.0004890681941 0  4.006942631291111 15.99954377480886 0  5.006885854856768 15.99859764784398 0  6.005050235886981 15.99899112736634 0  7.003314862215989 15.99934743093968 0  8.001642332659888 15.99967963693279 0  9 16 0  -9 18 0  -8.001880603663054 17.99977623518485 0  -7.003808652443495 17.99954622813425 0  -6.005834047482829 17.99930384419233 0  -5.008011570400208 17.99904318653964 0  -4.008105132715865 17.99959140563985 0  -3.008014303807883 18.00013877652103 0  -2.005143421282647 18.00007068572282 0  -1.002411402252407 18.00002889437587 0  0.0002536659927869081 18.00001311623165 0  1.002920212208063 18.00002293875166 0  2.005656571783315 18.0000578645468 0  3.008534333704341 18.00011717544522 0  4.00863016048139 17.99952226249694 0  5.008539071291996 17.99892891497039 0  6.006227838187707 17.99922139835756 0  7.004070284387182 17.99949275484614 0  8.002011150148679 17.99974993254586 0  9 18 0  -9 20 0  -8.002035207634911 19.99987641726681 0  -7.004125798023446 19.99975114826773 0  -6.0063292690701 19.99962268818309 0  -5.008707349358128 19.99948988750201 0  -4.008814206274793 19.99959092998514 0  -3.008708024102596 19.99969102447371 0  -2.005574938099513 19.99966426920176 0  -1.002600081019526 19.9996457054581 0  0.0002979601415325679 19.99963574882983 0  1.00319766309828 19.99963424322785 0  2.0061774905967 19.99964048162412 0  3.009318824677875 19.99965315512225 0  4.009427517513932 19.99951156116501 0  5.009320484293681 19.99937099819373 0  6.006786587621008 19.99953626642066 0  7.00442947676431 19.99969483787457 0  8.002186688721595 19.99984865277338 0  8.999999999979128 19.99999999999385 0  -9 22 0  -8.001967268908901 21.99998332591526 0  -7.00398926312631 21.99996883211941 0  -6.006122435733943 21.99995890530541 0  -5.008426678815882 21.99995634990673 0  -4.008531321495204 21.99958618619333 0  -3.008426897709035 21.999214958776 0  -2.005377870680495 21.99922527693028 0  -1.0024835262684 21.9992282965815 0  0.0003356263289704253 21.99922478689528 0  1.003156683287157 21.99921476729759 0  2.006056750904602 21.9991975216821 0  3.009115354052009 21.9991715843961 0  4.009220486768684 21.99950817565318 0  5.009113156420192 21.99984528354959 0  6.006634211305271 21.99987790904773 0  7.004328980049157 21.9999159252845 0  8.00213668461614 21.99995719957233 0  9 22 0  -9 24 0  -8.001679378561409 24.00008151766862 0  -7.003405793968699 24.0001682526506 0  -6.005227624198179 24.00026563671335 0  -5.00719583718687 24.00037954593394 0  -4.007285973514366 23.9995773398601 0  -3.007196811555262 23.99877414515792 0  -2.004566298169735 23.99881531226665 0  -1.002068147673883 23.99883684917285 0  0.000365789459917419 23.99883970830239 0  1.002801845649655 23.99882402862707 0  2.005306375192548 23.99878913898713 0  3.00794759439397 23.99873355238441 0  4.008035988878255 23.99951016897308 0  5.007941286477601 24.00028700297514 0  6.005783165460174 24.0001979586762 0  7.003774467898391 24.00012395668395 0  8.001863203974027 24.00005961681596 0  9 24 0  -9 26 0  -8.00120213272915 26.00015886540178 0  -7.002438289232454 26.00032509560066 0  -6.003743446091383 26.00050627491894 0  -5.005154290461746 26.00071044333333 0  -4.005220513724013 25.99956490873161 0  -3.005156816749321 25.99841857054183 0  -2.003229364764412 25.99848348542722 0  -1.00139776534353 25.99851973027457 0  0.0003876551395354427 25.99852839883188 0  1.002175341024219 25.99850973482774 0  2.004013761285789 25.99846313322293 0  3.005952665199198 25.99838713736801 0  4.006014509611147 25.99951573419751 0  5.005942345207961 26.0006443288712 0  6.004330652397908 26.00045783109615 0  7.00282793548013 26.00029334284642 0  8.001396402541662 26.00014315161373 0  9 26 0  -9 28 0  -8.000587380861095 28.00020678193278 0  -7.001192218666593 28.00042216277988 0  -6.001832513007382 28.0006549656736 0  -5.002527080434046 28.00091446958297 0  -4.002562931643899 27.99955000916071 0  -3.002531401462729 27.99818506235095 0  -2.001513029922323 27.99826593081436 0  -1.000544482078411 27.99831250426908 0  0.0004006381340032092 27.99832600102011 0  1.001348089840594 27.99830676459991 0  2.002323654450426 27.99825426455163 0  3.003353795679123 27.99816709479269 0  4.00338278767317 27.9995236078813 0  5.003340162969905 28.00088003043209 0  6.0024383678194 28.00062968408385 0  7.001594241641719 28.00040556832672 0  8.000787825167977
[...]
<PointData  Vectors="f_42"> 
<DataArray  type="Float64"  Name="f_42"  NumberOfComponents="3" format="ascii">0.0000000000000000e+00 0.0000000000000000e+00 0.0000000000000000e+00  0.0000000000000000e+00 0.0000000000000000e+00 0.0000000000000000e+00  0.0000000000000000e+00 0.0000000000000000e+00 0.0000000000000000e+00  0.0000000000000000e+00 0.0000000000000000e+00 0.0000000000000000e+00  0.0000000000000000e+00 0.0000000000000000e+00 0.0000000000000000e+00  0.0000000000000000e+00 0.0000000000000000e+00 0.0000000000000000e+00  0.0000000000000000e+00 0.0000000000000000e+00 0.0000000000000000e+00  0.0000000000000000e+00 0.0000000000000000e+00 0.0000000000000000e+00  0.0000000000000000e+00 0.0000000000000000e+00 0.0000000000000000e+00  0.0000000000000000e+00 0.0000000000000000e+00 0.0000000000000000e+00  0.0000000000000000e+00 0.0000000000000000e+00 0.0000000000000000e+00  0.0000000000000000e+00 0.0000000000000000e+00 0.0000000000000000e+00  0.0000000000000000e+00 0.0000000000000000e+00 0.0000000000000000e+00  0.0000000000000000e+00 0.0000000000000000e+00 0.0000000000000000e+00  0.0000000000000000e+00 0.0000000000000000e+00 0.0000000000000000e+00  0.0000000000000000e+00 0.0000000000000000e+00 0.0000000000000000e+00  0.0000000000000000e+00 0.0000000000000000e+00 0.0000000000000000e+00  0.0000000000000000e+00 0.0000000000000000e+00 0.0000000000000000e+00  0.0000000000000000e+00 0.0000000000000000e+00 0.0000000000000000e+00  0.0000000000000000e+00 0.0000000000000000e+00 0.0000000000000000e+00  -7.1108801665180541e-06 -1.1168057406816789e-05 0.0000000000000000e+00  -1.4930596684394942e-05 -2.0918140206851133e-05 0.0000000000000000e+00  -2.5160129546563286e-05 -2.8093684438429357e-05 0.0000000000000000e+00  -4.1715418155175704e-05 -3.2171700857807812e-05 0.0000000000000000e+00  -2.4218837022510094e-05 -2.4192556439542407e-05 0.0000000000000000e+00  -6.2586215125923697e-06 -1.6392576771325600e-05 0.0000000000000000e+00  2.3960526160452475e-06 -8.9747280207540798e-06 0.0000000000000000e+00  3.6126744698129714e-06 -3.1142644474727484e-06 0.0000000000000000e+00  1.9589226307324812e-07 -5.7496124675379667e-07 0.0000000000000000e+00  -3.5025554731636593e-06 -2.4512339717432117e-06 0.0000000000000000e+00  -3.2359396786882261e-06 -8.3250986022921509e-06 0.0000000000000000e+00  3.8638403179171145e-06 -1.5536931369968780e-05 0.0000000000000000e+00  1.8727204459684706e-05 -2.3317413185546311e-05 0.0000000000000000e+00  4.0397609212404075e-05 -2.6723745616298390e-05 0.0000000000000000e+00  2.4537994476752035e-05 -2.5527952234945417e-05 0.0000000000000000e+00  1.4669773640703982e-05 -1.9659556121241616e-05 0.0000000000000000e+00  7.0264584413117783e-06 -1.0633836568236567e-05 0.0000000000000000e+00  0.0000000000000000e+00 0.0000000000000000e+00 0.0000000000000000e+00  -4.9820587634006413e-12 0.0000000000000000e+00 0.0000000000000000e+00  -1.1386266958085719e-05 -2.8007291947946207e-05 0.0000000000000000e+00  -2.0221985551296255e-05 -5.2133902087326045e-05 0.0000000000000000e+00  -2.5017167502031323e-05 -6.8577187913105341e-05 0.0000000000000000e+00  -2.6089502358298373e-05 -7.3709842922604256e-05 0.0000000000000000e+00  -2.8101506480676569e-07 -7.0042702301620292e-05 0.0000000000000000e+00  1.6955714556518277e-05 -4.7755600483361920e-05 0.0000000000000000e+00  2.1241979358579340e-05 -1.8664314949969072e-05 0.0000000000000000e+00  1.4287982117870864e-05 4.7481909787933410e-06 0.0000000000000000e+00  1.2330082743812449e-06 1.4095642344138378e-05 0.0000000000000000e+00  -1.2055940876887352e-05 6.4390994264245347e-06 0.0000000000000000e+00  -1.9786318933412527e-05 -1.3945757644381658e-05 0.0000000000000000e+00  -1.6142142694252057e-05 -4.1546564998939173e-05 0.0000000000000000e+00  6.7421765432495839e-07 -6.9460878241089203e-05 0.0000000000000000e+00  2.6436283892011108e-05 -7.9317583810602536e-05 0.0000000000000000e+00  2.5110236907363026e-05 -6.9745780488852751e-05 0.0000000000000000e+00  2.0439700698796015e-05 -5.1947558476319575e-05 0.0000000000000000e+00  1.1585148379897543e-05 -2.7699267665087601e-05 0.0000000000000000e+00  0.0000000000000000e+00 0.0000000000000000e+00 0.0000000000000000e+00  0.0000000000000000e+00 0.0000000000000000e+00 0.0000000000000000e+00  -2.5862930302572933e-05 -6.0365625008413252e-05 0.0000000000000000e+00  -4.1675450752074341e-05 -1.1407958710160202e-04 0.0000000000000000e+00  -3.9765540273639747e-05 -1.5429992646532714e-04 0.0000000000000000e+00  -1.7922353655199268e-05 -1.7445535056644543e-04 0.0000000000000000e+00  3.2910014355880540e-05 -1.4140259015585422e-04 0.0000000000000000e+00  5.5951975264987977e-05 -7.1997858978504247e-05 0.0000000000000000e+00  4.6662204008365731e-05 8.4049319779744619e-07 0.0000000000000000e+00  2.3630135040657044e-05 4.1384113136325282e-05 0.0000000000000000e+00  2.3238275439672154e-07 4.9417457956389117e-05 0.0000000000000000e+00  -2.0906748750423356e-05 3.5994458475841467e-05 0.0000000000000000e+00  -3.7086361576802872e-05 -9.8286622137777300e-07 0.0000000000000000e+00  -4.3186447107225378e-05 -6.3466169273225948e-05 0.0000000000000000e+00  -3.1013606478719529e-05 -1.2841309119909482e-04 0.0000000000000000e+00  1.2960346835486649e-05 -1.6102354775300999e-04 0.0000000000000000e+00  3.9060385384022758e-05 -1.4686603898050995e-04 0.0000000000000000e+00  4.2944627796104247e-05 -1.1003209295618605e-04 0.0000000000000000e+00  2.7064670400272070e-05 -5.8565044033636159e-05 0.0000000000000000e+00  0.0000000000000000e+00 0.0000000000000000e+00 0.0000000000000000e+00  0.0000000000000000e+00 0.0000000000000000e+00 0.0000000000000000e+00  -8.0529837041668306e-05 -1.1931395588167689e-04 0.0000000000000000e+00  -1.3401212395654981e-04 -2.2998152021764870e-04 0.0000000000000000e+00  -1.3424298680646206e-04 -3.2026418881636728e-04 0.0000000000000000e+00  -5.8779714780553215e-05 -3.7082364779660726e-04 0.0000000000000000e+00  3.9815544744833237e-05 -2.1740691434474086e-04 0.0000000000000000e+00  2.1904321872329133e-05 -3.6966663553053194e-05 0.0000000000000000e+00  -1.4938208979899044e-05 5.1195254304694124e-05 0.0000000000000000e+00  -1.8121418270124734e-05 6.1522058360145680e-05 0.0000000000000000e+00  3.7605588981998983e-06 6.4587403662418578e-05 0.0000000000000000e+00  1.9921833859261582e-05 7.3548189574410174e-05 0.0000000000000000e+00  1.2663060375176771e-05 3.6016132706951177e-05 0.0000000000000000e+00  -3.1039697288365786e-05 -2.7762961523179348e-05 0.0000000000000000e+00  -4.6058320652459085e-05 -1.8546981619081105e-04 0.0000000000000000e+00  5.1898148422519978e-05 -3.6344814177460176e-04 0.0000000000000000e+00  1.4186043477567873e-04 -3.1466628287114378e-04 0.0000000000000000e+00  1.4449092809644699e-04 -2.2662925676928159e-04 0.0000000000000000e+00  8.7269749581632151e-05 -1.1780781526098942e-04 0.0000000000000000e+00  0.0000000000000000e+00 0.0000000000000000e+00 0.0000000000000000e+00  0.0000000000000000e+00 0.0000000000000000e+00 0.0000000000000000e+00  -2.4330149103113344e-04 -2.1277898546380591e-04 0.0000000000000000e+00  -4.3926367122049424e-04 -4.2731628073259306e-04 0.0000000000000000e+00  -5.3140858966481180e-04 -6.4494497554286659e-04 0.0000000000000000e+00  -4.4105394761702235e-04 -8.6598457076913506e-04 0.0000000000000000e+00  -2.8478579740410885e-04 -3.7059937579991863e-04 0.0000000000000000e+00  -3.0987195331516344e-04 5.5504957872613044e-05 0.0000000000000000e+00  -2.4638448191712886e-04 -1.7082317072546353e-05 0.0000000000000000e+00  -1.0916971812970018e-04 -4.0383117473819120e-05 0.0000000000000000e+00  -7.7908408856436087e-06 -4.6091569310571697e-05 0.0000000000000000e+00  9.3039464016525752e-05 -4.5754820287047525e-05 0.0000000000000000e+00  2.2777817846697044e-04 -4.8839054285375096e-05 0.0000000000000000e+00  3.4567537520068415e-04 1.0654634568005241e-04 0.0000000000000000e+00  3.2992487030807690e-04 -3.0523094117416327e-04 0.0000000000000000e+00  5.1053809400943657e-04 -8.4863516053393265e-04 0.0000000000000000e+00  5.9379887704469098e-04 -6.3934103495645773e-04 0.0000000000000000e+00  4.8532436420013742e-04 -4.2628230641567034e-04 0.0000000000000000e+00  2.6759070823980860e-04 -2.1294421690386581e-04 0.0000000000000000e+00  0.0000000000000000e+00 0.0000000000000000e+00 0.0000000000000000e+00  0.0000000000000000e+00 0.0000000000000000e+00 0.0000000000000000e+00  -5.9503436672814398e-04 -2.9906372912892734e-04 0.0000000000000000e+00  -1.1591368655768739e-03 -6.1203722738448056e-04 0.0000000000000000e+00  -1.6573209267919608e-03 -9.5554940398689557e-04 0.0000000000000000e+00  -2.0461216752444399e-03 -1.3527724861966055e-03 0.0000000000000000e+00  -1.9661315436694431e-03 -4.4975873862625491e-04 0.0000000000000000e+00  -2.0376814548128288e-03 4.4410366483226200e-04 0.0000000000000000e+00  -1.3877295434084110e-03 3.3777404320350945e-04 0.0000000000000000e+00  -6.6623562908530831e-04 2.8118281636860254e-04 0.0000000000000000e+00  8.1844709210014715e-05 2.7195608401086571e-04 0.0000000000000000e+00  8.3622883664398332e-04 3.1212939638191684e-04 0.0000000000000000e+00  1.5794672883760444e-03 4.1286206739261938e-04 0.0000000000000000e+00  2.2769325840384051e-03 6.0190937621610718e-04 0.0000000000000000e+00  2.1975907352334047e-03 -3.8859373288843479e-04 0.0000000000000000e+00  2.2507554902988221e-03 -1.3874558343581595e-03 0.0000000000000000e+00  1.8117428061219638e-03 -9.7873552212007059e-04 0.0000000000000000e+00  1.2627256335400519e-03 -6.2684493918533431e-04 0.0000000000000000e+00  6.4705290016404504e-04 -3.0637631585066205e-04 0.0000000000000000e+00  0.0000000000000000e+00 0.0000000000000000e+00 0.0000000000000000e+00  0.0000000000000000e+00 0.0000000000000000e+00 0.0000000000000000e+00  -1.0696778607951214e-03 -3.2954320406053671e-04 0.0000000000000000e+00  -2.1413749214967194e-03 -6.7431563318823945e-04 0.0000000000000000e+00  -3.2185257253969438e-03 -1.0508895122479879e-03 0.0000000000000000e+00  -4.3081839945677408e-03 -1.4784730194927600e-03 0.0000000000000000e+00  -4.3194612178156728e-03 -4.2381425598212472e-04 0.0000000000000000e+00  -4.3252838578020057e-03 6.4406348495795102e-04 0.0000000000000000e+00  -2.8167875670202067e-03 4.9398357807712754e-04 0.0000000000000000e+00  -1.3303042870266217e-03 4.1356286296586090e-04 0.0000000000000000e+00  1.4650116815230214e-04 3.9265714838146627e-04 0.0000000000000000e+00  1.6252666498436227e-03 4.2809263509954883e-04 0.0000000000000000e+00  3.1166156823633378e-03 5.2176117213132973e-04 0.0000000000000000e+00  4.6286160878451863e-03 6.7870254831499507e-04 0.0000000000000000e+00  4.6390524927418632e-03 -4.2745773490717229e-04 0.0000000000000000e+00  4.6472071752443429e-03 -1.5270072879351251e-03 0.0000000000000000e+00  3.4676467773379453e-03 -1.0901365862818369e-03 0.0000000000000000e+00  2.3055423615024099e-03 -7.0131559961398400e-04 0.0000000000000000e+00  1.1512822667178785e-03 -3.4321740502753212e-04 0.0000000000000000e+00  0.0000000000000000e+00 0.0000000000000000e+00 0.0000000000000000e+00  0.0000000000000000e+00 0.0000000000000000e+00 0.0000000000000000e+00  -1.5351310403581581e-03 -2.9899515898432552e-04 0.0000000000000000e+00  -3.0999616852930311e-03 -6.0915354437641480e-04 0.0000000000000000e+00  -4.7267416886539008e-03 -9.4183744118311158e-04 0.0000000000000000e+00  -6.4529011240226208e-03 -1.3086311036597175e-03 0.0000000000000000e+00  -6.5147651486603198e-03 -4.1109053706338250e-04 0.0000000000000000e+00  -6.4557286503199897e-03 4.8156350353932749e-04 0.0000000000000000e+00  -4.1607013379979891e-03 3.7246487656653380e-04 0.0000000000000000e+00  -1.9569133118931114e-03 3.0861716920162235e-04 0.0000000000000000e+00  2.0341150597546006e-04 2.8865967592600535e-04 0.0000000000000000e+00  2.3653939984756432e-03 3.1178276827965482e-04 0.0000000000000000e+00  4.5741186394737234e-03 3.7822975619777280e-04 0.0000000000000000e+00  6.8775058621776885e-03 4.8906819409020154e-04 0.0000000000000000e+00  6.9426312911064136e-03 -4.5622519111889468e-04 0.0000000000000000e+00  6.8858548567740201e-03 -1.4023521560160572e-03 0.0000000000000000e+00  5.0502358869844990e-03 -1.0088726336602799e-03 0.0000000000000000e+00  3.3148622159870286e-03 -6.5256906032556115e-04 0.0000000000000000e+00  1.6423326598952535e-03 -3.2036306720597163e-04 0.0000000000000000e+00  0.0000000000000000e+00 0.0000000000000000e+00 0.0000000000000000e+00  0.0000000000000000e+00 0.0000000000000000e+00 0.0000000000000000e+00  -1.8806036630366865e-03 -2.2376481513632028e-04 0.0000000000000000e+00  -3.8086524434951300e-03 -4.5377186573475927e-04 0.0000000000000000e+00  -5.8340474828291623e-03 -6.9615580767661142e-04 0.0000000000000000e+00  -8.0115704002092312e-03 -9.5681346034219334e-04 0.0000000000000000e+00  -8.1051327158611578e-03 -4.0859436015586745e-04 0.0000000000000000e+00  -8.0143038078830491e-03 1.3877652104630461e-04 0.0000000000000000e+00  -5.1434212826460286e-03 7.0685722811235566e-05 0.0000000000000000e+00  -2.4114022524096578e-03 2.8894375874688147e-05 0.0000000000000000e+00  2.5366599278690811e-04 1.3116231641478046e-05 0.0000000000000000e+00  2.9202122080631411e-03 2.2938751655163837e-05 0.0000000000000000e+00  5.6565717833116074e-03 5.7864546789694001e-05 0.0000000000000000e+00  8.5343337043418191e-03 1.1717544519644983e-04 0.0000000000000000e+00  8.6301604813888676e-03 -4.7773750307607992e-04 0.0000000000000000e+00  8.5390712919986757e-03 -1.0710850296367196e-03 0.0000000000000000e+00  6.2278381877083145e-03 -7.7860164245074025e-04 0.0000000000000000e+00  4.0702843871861525e-03 -5.0724515386141420e-04 0.0000000000000000e+00  2.0111501486752450e-03 -2.5006745413875484e-04 0.0000000000000000e+00  0.0000000000000000e+00 0.0000000000000000e+00 0.0000000000000000e+00  0.0000000000000000e+00 0.0000000000000000e+00 0.0000000000000000e+00  -2.0352076349041018e-03 -1.2358273320505931e-04 0.0000000000000000e+00  -4.1257980234461053e-03 -2.4885173227106526e-04 0.0000000000000000e+00  -6.3292690701035751e-03 -3.7731181688256964e-04 0.0000000000000000e+00  -8.7073493581275672e-03 -5.1011249797871887e-04 0.0000000000000000e+00  -8.8142062747919667e-03 -4.0907001485109516e-04 0.0000000000000000e+00  -8.7080241025986153e-03 -3.0897552629668008e-04 0.0000000000000000e+00  -5.5749380995122394e-03 -3.3573079823155238e-04 0.0000000000000000e+00  -2.6000810195269744e-03 -3.5429454189248342e-04 0.0000000000000000e+00  2.9796014153256795e-04 -3.6425117014822061e-04 0.0000000000000000e+00  3.1976630982808738e-03 -3.6575677215283675e-04 0.0000000000000000e+00  6.1774905967050394e-03 -3.5951837588840018e-04 0.0000000000000000e+00  9.3188246778767008e-03 -3.4684487777402042e-04 0.0000000000000000e+00  9.4275175139350662e-03 -4.8843883499820654e-04 0.0000000000000000e+00  9.3204842936796366e-03 -6.2900180627224105e-04 0.0000000000000000e+00  6.7865876210069327e-03 -4.6373357935210196e-04 0.0000000000000000e+00  4.4294767643084740e-03 -3.0516212542693852e-04 0.0000000000000000e+00  2.1866887215729177e-03 -1.5134722663359473e-04 0.0000000000000000e+00  -2.0871397584644788e-11 -6.1516175690683640e-12 0.0000000000000000e+00  0.0000000000000000e+00 0.0000000000000000e+00 0.0000000000000000e+00  -1.9672689088962359e-03 -1.6674084741347657e-05 0.0000000000000000e+00  -3.9892631263122123e-03 -3.1167880595927200e-05 0.0000000000000000e+00  -6.1224357339433894e-03 -4.1094694583569842e-05 0.0000000000000000e+00  -8.4266788158801585e-03 -4.3650093263701738e-05 0.0000000000000000e+00  -8.5313214952055082e-03 -4.1381380665123476e-04 0.0000000000000000e+00  -8.4268977090361276e-03 -7.8504122398953058e-04 0.0000000000000000e+00  -5.3778706804914660e-03 -7.7472306969009620e-04 0.0000000000000000e+00  -2.4835262684008126e-03 -7.7170341848229222e-04 0.0000000000000000e+00  3.3562632897042528e-04 -7.7521310474229336e-04 0.0000000000000000e+00  3.1566832871572463e-03 -7.8523270241378921e-04 0.0000000000000000e+00  6.0567509046007481e-03 -8.0247831791496608e-04 0.0000000000000000e+00  9.1153540520088165e-03 -8.2841560391102090e-04 0.0000000000000000e+00  9.2204867686883577e-03 -4.9182434679673421e-04 0.0000000000000000e+00  9.1131564201918404e-03 -1.5471645041307492e-04 0.0000000000000000e+00  6.6342113052681563e-03 -1.2209095227394347e-04 0.0000000000000000e+00  4.3289800491540563e-03 -8.4074715482438604e-05 0.0000000000000000e+00  2.1366846161344909e-03 -4.2800427665132044e-05 0.0000000000000000e+00  0.0000000000000000e+00 0.0000000000000000e+00 0.0000000000000000e+00  0.0000000000000000e+00 0.0000000000000000e+00 0.0000000000000000e+00  -1.6793785614010049e-03 8.1517668612625293e-05 0.0000000000000000e+00  -3.4057939686997218e-03 1.6825265061948055e-04 0.0000000000000000e+00  -5.2276241981836554e-03 2.6563671336602985e-04 0.0000000000000000e+00  -7.1958371868616746e-03 3.7954593392684229e-04 0.0000000000000000e+00  -7.2859735143652174e-03 -4.2266013988027538e-04 0.0000000000000000e+00  -7.1968115552611617e-03 -1.2258548420920061e-03 0.0000000000000000e+00  -4.5662981697313799e-03 -1.1846877333542953e-03 0.0000000000000000e+00  -2.0681476738837528e-03 -1.1631508271384827e-03 0.0000000000000000e+00  3.6578945991741897e-04 -1.1602916976157802e-03 0.0000000000000000e+00  2.8018456496531519e-03 -1.1759713729281591e-03 0.0000000000000000e+00  5.3063751925517093e-03 -1.2108610128499131e-03 0.0000000000000000e+00  7.9475943939667486e-03 -1.2664476155858444e-03 0.0000000000000000e+00  8.0359888782500759e-03 -4.8983102691821042e-04 0.0000000000000000e+00  7.9412864775975436e-03 2.8700297513201004e-04 0.0000000000000000e+00  5.7831654601764220e-03 1.9795867622309611e-04 0.0000000000000000e+00  3.7744678983893830e-03 1.2395668394489566e-04 0.0000000000000000e+00  1.8632039740246764e-03 5.9616815964115312e-05 0.0000000000000000e+00  0.0000000000000000e+00 0.0000000000000000e+00 0.0000000000000000e+00  0.0000000000000000e+00 0.0000000000000000e+00 0.0000000000000000e+00  -1.2021327291511302e-03 1.5886540177361167e-04 0.0000000000000000e+00  -2.4382892324556335e-03 3.2509560066703989e-04 0.0000000000000000e+00  -3.7434460913807906e-03 5.0627491893122996e-04 0.0000000000000000e+00  -5.1542904617414616e-03 7.1044333333289118e-04 0.0000000000000000e+00  -5.2205137240154452e-03 -4.3509126837487872e-04 0.0000000000000000e+00  -5.1568167493171724e-03 -1.5814294581695035e-03 0.0000000000000000e+00  -3.2293647644123834e-03 -1.5165145727748816e-03 0.0000000000000000e+00  -1.3977653435299764e-03 -1.4802697254211437e-03 0.0000000000000000e+00  3.8765513953544270e-04 -1.4716011681108958e-03 0.0000000000000000e+00  2.1753410242190498e-03 -1.4902651722447011e-03 0.0000000000000000e+00  4.0137612857909146e-03 -1.5368667770918408e-03 0.0000000000000000e+00  5.9526651991969734e-03 -1.6128626319905776e-03 0.0000000000000000e+00  6.0145096111465816e-03 -4.8426580248976908e-04 0.0000000000000000e+00  5.9423452079591056e-03 6.4432887120100132e-04 0.0000000000000000e+00  4.3306523979068211e-03 4.5783109613291778e-04 0.0000000000000000e+00  2.8279354801283851e-03 2.9334284642666577e-04 0.0000000000000000e+00  1.3964025416667808e-03 1.4315161376173563e-04 0.0000000000000000e+00  0.0000000000000000e+00 0.0000000000000000e+00 0.0000000000000000e+00  0.0000000000000000e+00 0.0000000000000000e+00 0.0000000000000000e+00  -5.8738086109361089e-04 2.0678193279103231e-04 0.0000000000000000e+00  -1.1922186665953777e-03 4.2216277988469064e-04 0.0000000000000000e+00  -1.8325130073842621e-03 6.5496567359181511e-04 0.0000000000000000e+00  -2.5270804340466993e-03 9.1446958296531719e-04 0.0000000000000000e+00  -2.5629316439023738e-03 -4.4999083929200844e-04 0.0000000000000000e+00  -2.5314014627270515e-03 -1.8149376490758653e-03 0.0000000000000000e+00  -1.5130299223242985e-03 -1.7340691856699854e-03 0.0000000000000000e+00  -5.4448207841169825e-04 -1.6874957309249788e-03 0.0000000000000000e+00  4.0063813400320917e-04 -1.6739989799169034e-03 0.0000000000000000e+00  1.3480898405943066e-03 -1.6932354000878461e-03 0.0000000000000000e+00  2.3236544504277178e-03 -1.7457354483676674e-03 0.0000000000000000e+00  3.3537956791264804e-03 -1.8329052073068370e-03 0.0000000000000000e+00  3.3827876731660962e-03 -4.7639211870194055e-04 0.0000000000000000e+00  3.34