<?xml version="1.0"?>
<VTKFile type="UnstructuredGrid"  version="0.1"  >
<UnstructuredGrid>
<Piece  NumberOfPoints="589" NumberOfCells="1080">
<Points>
<DataArray  type="Float64"  NumberOfComponents="3"  format="ascii">-9 0 0  -8 0 0  -7 0 0  -6 0 0  -5 0 0  -4 0 0  -3 0 0  -2 0 0  -1 0 0  0 0 0  1 0 0  2 0 0  3 0 0  4 0 0  5 0 0  6 0 0  7 0 0  8 0 0  9 0 0  -9 2 0  -7.999999107453908 2.000000867121496 0  -6.999998203172089 2.000001634203974 0  -5.999997210014275 2.00000222071635 0  -4.999995908435724 2.000002591308784 0  -3.99999731305647 2.000001870966684 0  -2.99999867972866 2.000001233340931 0  -1.999999339960443 2.000000648029971 0  -0.9999994437011079 2.00000016142555 0  8.33881680288898e-07 1.999999869102424 0  1.000001244541271 1.999999806966833 0  2.000001586395439 1.999999902352817 0  3.00000177956915 1.999999939330914 0  4.000001936047977 1.999999694933604 0  5.000002342635748 1.999998693103564 0  6.000001814474348 1.999999279105229 0  7.000001207141178 1.999999653989093 0  8.000000596762929 1.999999869320548 0  9 2 0  -9.000000000004983 4 0  -7.999998261848251 4.000002134402683 0  -6.999996761846325 4.000003990691501 0  -5.999995653710799 4.000005305114286 0  -4.999994949689527 4.000005844220563 0  -3.999996781024555 4.000005238248001 0  -2.999997934149385 4.000003457315319 0  -1.999998151027751 4.000001252445166 0  -0.999997562996827 3.999999430447614 0  3.466732267247772e-06 3.999998490164061 0  1.000004587757773 3.999998455854268 0  2.000005523725735 3.999998949603259 0  3.000006026020873 3.999999539977132 0  4.000006037041835 3.999999697642333 0  5.000005654149713 3.999998258397274 0  6.000003945631232 3.999999402684773 0  7.000002426459753 3.999999946189211 0  8.000001139062762 4.000000077249611 0  9 4 0  -9 6 0  -7.999996463615461 6.000004514153481 0  -6.999993753052202 6.000008514655654 0  -5.999992480951545 6.000011490788752 0  -4.999992782620434 6.000013000975525 0  -3.999996169704086 6.000010098573291 0  -2.999997501241499 6.000004760110061 0  -1.99999637453054 5.99999933562108 0  -0.9999944149628649 5.999996499423538 0  7.320467711592556e-06 5.999995774693341 0  1.00000871899966 5.999996067637098 0  2.000009810840762 5.999997227186873 0  3.000010540769978 5.999999255602381 0  4.000010548173767 6.000000985533514 0  5.000009035909749 6.000000819906707 0  6.000005319388989 6.000001929405217 0  7.000002718673943 6.000001888169748 0  8.00000108802263 6.00000111841998 0  9 6 0  -9 8 0  -7.999991361901041 8.000008948572253 0  -6.99998499038601 8.000017136157473 0  -5.99998301311718 8.000023540297738 0  -4.999987070432877 8.000026498866657 0  -3.999994098114025 8.00001422293095 0  -2.999991250479682 8.000000221324839 0  -1.99998729962155 7.99999425307805 0  -0.9999864760859315 7.999994663757074 0  1.205663382684528e-05 7.999994943995389 0  1.000010685242422 7.999994288272686 0  2.000010709713607 7.999995175305885 0  3.000012938884073 7.999996732916983 0  4.000013939525942 8.000002654451631 0  5.000009598722114 8.000009636721305 0  6.000002229879857 8.000009059097188 0  6.999999130605536 8.000006744225772 0  7.999998866455522 8.000003554278186 0  9 8 0  -9 10 0  -7.999977193478782 10.00001642722668 0  -6.999958650458765 10.00003289188053 0  -5.999949406711144 10.00004937280084 0  -4.999956367963738 10.00006571217135 0  -3.999968378296804 10.00002384921584 0  -2.99996364565974 9.99998864156648 0  -1.999967034616156 9.999998232762675 0  -0.9999773231410561 10.00000136770341 0  1.608856539463581e-05 10.00000213192481 0  1.000010124728641 10.00000173468114 0  2.000002780589768 10.00000061925133 0  2.999995551661197 9.999990433141233 0  3.999996124766251 10.00000782074215 0  4.999988516956283 10.00003165887304 0  5.999982061804375 10.00002313793265 0  6.999984201890229 10.00001510065241 0  7.999991054047261 10.00000744748737 0  9 10 0  -9 12 0  -7.999945969117033 12.00002375687595 0  -6.999895110294914 12.00004858375782 0  -5.999850974558092 12.00007577370869 0  -4.999817888493032 12.00010716398836 0  -3.999824272822602 12.00002715269894 0  -2.999815638350484 11.99994761637174 0  -1.999850476803959 11.9999613013936 0  -0.9998936606774496 11.9999707867774 0  5.896194916778568e-05 11.99997642957784 0  1.000008941719766 11.99997838913777 0  1.999956996773131 11.99997626249104 0  2.999904154777933 11.99996871536825 0  3.999907345364207 12.00001036347722 0  4.999907236565039 12.00005214573821 0  5.999927511801365 12.00003528236758 0  6.999950424478585 12.00002192075125 0  7.999974866266482 12.00001051805694 0  9 12 0  -9 14 0  -7.999902052156925 14.00002680738352 0  -6.999804670762839 14.00005482489926 0  -5.999708331646862 14.00008537554508 0  -4.999613234762496 14.00012000486339 0  -3.999612285002173 14.00002131097981 0  -2.999608829101166 13.99992117263997 0  -1.999700546178326 13.99994117004466 0  -0.9997932304776331 13.99995557767377 0  0.0001124024142832119 13.99996546148325 0  1.000015455959027 13.99997138953376 0  1.999914802733698 13.99997358886819 0  2.999809151363371 13.99997208446763 0  3.999807202166114 14.00001063711293 0  4.999809717836546 14.00004852277362 0  5.999862410293099 14.00003342041409 0  6.999910529751894 14.00002090546962 0  7.999955910262835 14.00001005021405 0  9 14 0  -9 16 0  -7.999855862991548 16.00002501802397 0  -6.999710051582611 16.00005093485567 0  -5.999560703009339 16.00007866462351 0  -4.99940554832883 16.00010913391218 0  -3.999400612822781 16.00001687380504 0  -2.999402648997362 15.99992476559559 0  -1.999546761637228 15.99994340127628 0  -0.9996860785304656 15.99995846666249 0  0.000176154718989516 15.9999703188731 0  1.000036795465692 15.99997930698864 0  1.999892603206599 15.99998573234626 0  2.99974004423108 15.99998986370173 0  3.999735295856627 16.00001045248103 0  4.999740961048326 16.00003080149301 0  5.999815598056284 16.00002120922116 0  6.999881589472835 16.00001325167808 0  7.999942116738013 16.00000636231007 0  9 16 0  -9 18 0  -7.999816362872526 18.00001963365729 0  -6.999629568877652 18.00003979374261 0  -5.999436278825476 18.00006099659469 0  -4.999232782696793 18.00008373313038 0  -3.99922528990963 18.00001370910651 0  -2.999230059039491 17.99994348935503 0  -1.999412187344173 17.99995991607604 0  -0.9995851376298964 17.99997421081468 0  0.0002462715145258659 17.9999866350785 0  1.000077466002688 17.99999747782097 0  1.99990387460597 18.00000705405071 0  2.99972071287323 18.00001571481535 0  3.999714844326974 18.00001009812951 0  4.999721708136063 18.00000412486878 0  5.999803365406249 18.00000245958 0  6.999874504425637 18.00000132545171 0  7.999938898674607 18.00000056629636 0  9 18 0  -9 20 0  -7.999789483113622 20.0000121434587 0  -6.999575056972574 20.0000244816143 0  -5.99935265814719 20.00003719392402 0  -4.999117913499962 20.00005042816737 0  -3.999109249086151 20.00001114889168 0  -2.9991155716777 19.99997166461389 0  -1.999314339842095 19.99998496020863 0  -0.9995016438909216 19.99999743840472 0  0.0003172431635967388 20.00000927890716 0  1.000137275217157 20.00002071616623 0  1.999953445071255 20.00003203892355 0  2.999760600447674 20.00004359473357 0  3.999754760873736 20.00000941548252 0  4.99976158318819 19.99997490600924 0  5.999833202726809 19.99998158596311 0  6.999894396794434 19.99998789957894 0  7.999948851628045 19.99999399904946 0  8.999999999969271 19.99999999998952 0  -9 22 0  -7.999778233876778 22.00000387419801 0  -6.999552422626628 22.00000767251821 0  -5.999318399561642 22.00001130298784 0  -4.999071755048322 22.00001464102014 0  -3.999063064857794 22.00000922079087 0  -2.999069729392708 22.00000358828341 0  -1.999262362216242 22.00001327421136 0  -0.9994429210141957 22.00002321711293 0  0.0003836332997689829 22.00003353598895 0  1.000212536985082 22.00004441271825 0  2.000039082236543 22.00005609163723 0  2.999858477977616 22.00006888134732 0  3.999853593706329 22.00000859045995 0  4.999859429017953 21.99994799309546 0  5.999904738291206 21.99996217872894 0  6.999941243633536 21.99997533201734 0  7.999972029305303 21.99998782636775 0  9 22 0  -9 24 0  -7.999783159161058 23.9999959081577 0  -6.999562622978355 23.99999153426858 0  -5.999334606456934 23.99998658089514 0  -4.999095147025151 23.99998071999075 0  -3.999087304017489 24.00000782279182 0  -2.999093404960979 24.00003469701661 0  -1.999258691178432 24.00004055964097 0  -0.9994126550188531 24.00004749121412 0  0.0004406268377347308 24.00005556088874 0  1.000297238573172 24.00006489964586 0  2.000153329204366 24.00007570017375 0  3.000005017590968 24.000088217888 0  4.000001728686859 24.00000771373635 0  5.000005890150876 23.99992691741528 0  6.000011483641857 23.99994690227362 0  7.000010965323733 23.99996540118368 0  8.000006464512827 23.99998293716901 0  9 24 0  -9 26 0  -7.999802861873393 25.99998907004586 0  -6.999602735564914 25.99997771305769 0  -5.999396573399768 25.99996548781791 0  -4.999181206364629 25.99995192469008 0  -3.999174849825608 26.00000686284531 0  -2.999179718220931 26.00006155971188 0  -1.999300317755535 26.00006356940203 0  -0.9994113744999441 26.00006721173417 0  0.0004843032642616055 26.00007250818344 0  1.000384032019187 26.00007953809486 0  2.000285198127808 26.00008843841533 0  3.000185204269717 26.00009940504892 0  4.000183893937951 26.00000688127684 0  5.000185959392821 25.99991408078983 0  6.000142667673176 25.99993757125841 0  7.000096611153801 25.99995932318424 0  8.000048750718738 25.99997994126816 0  9 26 0  -9 28 0  -7.999834511461946 27.99998393982051 0  -6.999666980318006 27.99996736414343 0  -5.999495331868318 27.99994974441357 0  -4.999317427031965 27.99993052609485 0  -3.99931297764662 28.00000626277733 0  -2.999316165662413 28.00008174704814 0  -1.999380123171659 28.00008004757675 0  -0.9994370342737174 28.00008031450045 0  0.0005117783768402352 28.00008252081807 0  1.000465083319614 28.00008669312802 0  2.000421721820218 28.00009291130635 0  3.000380590650482 28.00010130859702 0  4.000381410209068 28.00000618614678 0  5.000381190648958 27.9999108007933 0  6.000284899474145 27.99993519613567 0  7.000189464731702 27.999957
[...]
<PointData  Vectors="f_42"> 
<DataArray  type="Float64"  Name="f_42"  NumberOfComponents="3" format="ascii">0.0000000000000000e+00 0.0000000000000000e+00 0.0000000000000000e+00  0.0000000000000000e+00 0.0000000000000000e+00 0.0000000000000000e+00  0.0000000000000000e+00 0.0000000000000000e+00 0.0000000000000000e+00  0.0000000000000000e+00 0.0000000000000000e+00 0.0000000000000000e+00  0.0000000000000000e+00 0.0000000000000000e+00 0.0000000000000000e+00  0.0000000000000000e+00 0.0000000000000000e+00 0.0000000000000000e+00  0.0000000000000000e+00 0.0000000000000000e+00 0.0000000000000000e+00  0.0000000000000000e+00 0.0000000000000000e+00 0.0000000000000000e+00  0.0000000000000000e+00 0.0000000000000000e+00 0.0000000000000000e+00  0.0000000000000000e+00 0.0000000000000000e+00 0.0000000000000000e+00  0.0000000000000000e+00 0.0000000000000000e+00 0.0000000000000000e+00  0.0000000000000000e+00 0.0000000000000000e+00 0.0000000000000000e+00  0.0000000000000000e+00 0.0000000000000000e+00 0.0000000000000000e+00  0.0000000000000000e+00 0.0000000000000000e+00 0.0000000000000000e+00  0.0000000000000000e+00 0.0000000000000000e+00 0.0000000000000000e+00  0.0000000000000000e+00 0.0000000000000000e+00 0.0000000000000000e+00  0.0000000000000000e+00 0.0000000000000000e+00 0.0000000000000000e+00  0.0000000000000000e+00 0.0000000000000000e+00 0.0000000000000000e+00  0.0000000000000000e+00 0.0000000000000000e+00 0.0000000000000000e+00  0.0000000000000000e+00 0.0000000000000000e+00 0.0000000000000000e+00  8.9254608758684881e-07 8.6712149724363704e-07 0.0000000000000000e+00  1.7968279168197906e-06 1.6342039743253104e-06 0.0000000000000000e+00  2.7899857260209120e-06 2.2207163506236416e-06 0.0000000000000000e+00  4.0915642638420604e-06 2.5913087824566896e-06 0.0000000000000000e+00  2.6869435321363312e-06 1.8709666849989960e-06 0.0000000000000000e+00  1.3202713367307155e-06 1.2333409323976527e-06 0.0000000000000000e+00  6.6003955831161544e-07 6.4802997054253822e-07 0.0000000000000000e+00  5.5629889083790105e-07 1.6142555106475990e-07 0.0000000000000000e+00  8.3388168028889796e-07 -1.3089757847003318e-07 0.0000000000000000e+00  1.2445412720953072e-06 -1.9303316545748977e-07 0.0000000000000000e+00  1.5863954387779997e-06 -9.7647180075884403e-08 0.0000000000000000e+00  1.7795691516036832e-06 -6.0669088216383037e-08 0.0000000000000000e+00  1.9360479794194311e-06 -3.0506639639859446e-07 0.0000000000000000e+00  2.3426357470461392e-06 -1.3068964362533856e-06 0.0000000000000000e+00  1.8144743455483083e-06 -7.2089477116526316e-07 0.0000000000000000e+00  1.2071411740718821e-06 -3.4601090777562825e-07 0.0000000000000000e+00  5.9676291895703278e-07 -1.3067945283471574e-07 0.0000000000000000e+00  0.0000000000000000e+00 0.0000000000000000e+00 0.0000000000000000e+00  -4.9820587634006413e-12 0.0000000000000000e+00 0.0000000000000000e+00  1.7381517569023836e-06 2.1344026814934879e-06 0.0000000000000000e+00  3.2381536801841067e-06 3.9906915004751142e-06 0.0000000000000000e+00  4.3462891995758051e-06 5.3051142845416742e-06 0.0000000000000000e+00  5.0503104679016815e-06 5.8442205646464169e-06 0.0000000000000000e+00  3.2189754433173815e-06 5.2382480022496760e-06 0.0000000000000000e+00  2.0658506139469844e-06 3.4573153222187550e-06 0.0000000000000000e+00  1.8489722487244896e-06 1.2524451645022664e-06 0.0000000000000000e+00  2.4370031731544981e-06 -5.6955238657910646e-07 0.0000000000000000e+00  3.4667322672477720e-06 -1.5098359386849259e-06 0.0000000000000000e+00  4.5877577727872571e-06 -1.5441457238171097e-06 0.0000000000000000e+00  5.5237257354458544e-06 -1.0503967415981466e-06 0.0000000000000000e+00  6.0260208751351932e-06 -4.6002286842474995e-07 0.0000000000000000e+00  6.0370418343793038e-06 -3.0235766458728099e-07 0.0000000000000000e+00  5.6541497080275312e-06 -1.7416027247107090e-06 0.0000000000000000e+00  3.9456312245108233e-06 -5.9731522340143436e-07 0.0000000000000000e+00  2.4264597537719748e-06 -5.3810789206582316e-08 0.0000000000000000e+00  1.1390627702957338e-06 7.7249608970742256e-08 0.0000000000000000e+00  0.0000000000000000e+00 0.0000000000000000e+00 0.0000000000000000e+00  0.0000000000000000e+00 0.0000000000000000e+00 0.0000000000000000e+00  3.5363845224891735e-06 4.5141534759589775e-06 0.0000000000000000e+00  6.2469478011609959e-06 8.5146556570348973e-06 0.0000000000000000e+00  7.5190484462356633e-06 1.1490788756136316e-05 0.0000000000000000e+00  7.2173795659839999e-06 1.3000975529913742e-05 0.0000000000000000e+00  3.8302959150392126e-06 1.0098573297400133e-05 0.0000000000000000e+00  2.4987585008946188e-06 4.7601100639830505e-06 0.0000000000000000e+00  3.6254694602427393e-06 -6.6437892983015683e-07 0.0000000000000000e+00  5.5850371349622372e-06 -3.5005764599504373e-06 0.0000000000000000e+00  7.3204677115925562e-06 -4.2253066641910106e-06 0.0000000000000000e+00  8.7189996593656349e-06 -3.9323628997698090e-06 0.0000000000000000e+00  9.8108407641688512e-06 -2.7728131306228076e-06 0.0000000000000000e+00  1.0540769977288223e-05 -7.4439761478080667e-07 0.0000000000000000e+00  1.0548173765070126e-05 9.8553351540942423e-07 0.0000000000000000e+00  9.0359097521996744e-06 8.1990670807834563e-07 0.0000000000000000e+00  5.3193889806673253e-06 1.9294052201235050e-06 0.0000000000000000e+00  2.7186739403605775e-06 1.8881697454606447e-06 0.0000000000000000e+00  1.0880226299448306e-06 1.1184199801604183e-06 0.0000000000000000e+00  0.0000000000000000e+00 0.0000000000000000e+00 0.0000000000000000e+00  0.0000000000000000e+00 0.0000000000000000e+00 0.0000000000000000e+00  8.6380989467192154e-06 8.9485722554665271e-06 0.0000000000000000e+00  1.5009613988800271e-05 1.7136157471151454e-05 0.0000000000000000e+00  1.6986882819983613e-05 2.3540297734362218e-05 0.0000000000000000e+00  1.2929567122663685e-05 2.6498866667141095e-05 0.0000000000000000e+00  5.9018859766410110e-06 1.4222930957835929e-05 0.0000000000000000e+00  8.7495203174790223e-06 2.2132483759857330e-07 0.0000000000000000e+00  1.2700378449721226e-05 -5.7469219495750539e-06 0.0000000000000000e+00  1.3523914067853071e-05 -5.3362429257791759e-06 0.0000000000000000e+00  1.2056633826845282e-05 -5.0560046155018372e-06 0.0000000000000000e+00  1.0685242423234675e-05 -5.7117273293541379e-06 0.0000000000000000e+00  1.0709713607459676e-05 -4.8246941285032575e-06 0.0000000000000000e+00  1.2938884071095599e-05 -3.2670830101386851e-06 0.0000000000000000e+00  1.3939525942175529e-05 2.6544516335705707e-06 0.0000000000000000e+00  9.5987221063330250e-06 9.6367212973422674e-06 0.0000000000000000e+00  2.2298798565747955e-06 9.0590971876042668e-06 0.0000000000000000e+00  -8.6939446289109700e-07 6.7442257631654536e-06 0.0000000000000000e+00  -1.1335444853538846e-06 3.5542781850753537e-06 0.0000000000000000e+00  0.0000000000000000e+00 0.0000000000000000e+00 0.0000000000000000e+00  0.0000000000000000e+00 0.0000000000000000e+00 0.0000000000000000e+00  2.2806521217991369e-05 1.6427226689249359e-05 0.0000000000000000e+00  4.1349541237827424e-05 3.2891880537867597e-05 0.0000000000000000e+00  5.0593288854462147e-05 4.9372800844421968e-05 0.0000000000000000e+00  4.3632036256586958e-05 6.5712171348997041e-05 0.0000000000000000e+00  3.1621703199852718e-05 2.3849215843104127e-05 0.0000000000000000e+00  3.6354340258506427e-05 -1.1358433513338270e-05 0.0000000000000000e+00  3.2965383840081159e-05 -1.7672373177096302e-06 0.0000000000000000e+00  2.2676858943617985e-05 1.3677034001803768e-06 0.0000000000000000e+00  1.6088565394635806e-05 2.1319247979498999e-06 0.0000000000000000e+00  1.0124728643276083e-05 1.7346811409433726e-06 0.0000000000000000e+00  2.7805897708117448e-06 6.1925131949398396e-07 0.0000000000000000e+00  -4.4483388054395587e-06 -9.5668587729171577e-06 0.0000000000000000e+00  -3.8752337470768016e-06 7.8207421487872675e-06 0.0000000000000000e+00  -1.1483043710583913e-05 3.1658873038882420e-05 0.0000000000000000e+00  -1.7938195617500717e-05 2.3137932652806478e-05 0.0000000000000000e+00  -1.5798109772404403e-05 1.5100652410866892e-05 0.0000000000000000e+00  -8.9459527457071552e-06 7.4474873766994961e-06 0.0000000000000000e+00  0.0000000000000000e+00 0.0000000000000000e+00 0.0000000000000000e+00  0.0000000000000000e+00 0.0000000000000000e+00 0.0000000000000000e+00  5.4030882967761470e-05 2.3756875951028333e-05 0.0000000000000000e+00  1.0488970508698164e-04 4.8583757821511278e-05 0.0000000000000000e+00  1.4902544190463799e-04 7.5773708713806047e-05 0.0000000000000000e+00  1.8211150697402287e-04 1.0716398836730048e-04 0.0000000000000000e+00  1.7572717739725360e-04 2.7152698937695379e-05 0.0000000000000000e+00  1.8436164951543248e-04 -5.2383628259277464e-05 0.0000000000000000e+00  1.4952319604170323e-04 -3.8698606396961536e-05 0.0000000000000000e+00  1.0633932255151744e-04 -2.9213222603311845e-05 0.0000000000000000e+00  5.8961949167785676e-05 -2.3570422151587036e-05 0.0000000000000000e+00  8.9417197642938082e-06 -2.1610862236484775e-05 0.0000000000000000e+00  -4.3003226870793956e-05 -2.3737508960278836e-05 0.0000000000000000e+00  -9.5845222067350512e-05 -3.1284631774353678e-05 0.0000000000000000e+00  -9.2654635789364974e-05 1.0363477233136187e-05 0.0000000000000000e+00  -9.2763434968926863e-05 5.2145738220723581e-05 0.0000000000000000e+00  -7.2488198635457910e-05 3.5282367586157482e-05 0.0000000000000000e+00  -4.9575521408814181e-05 2.1920751250560255e-05 0.0000000000000000e+00  -2.5133733524548798e-05 1.0518056940741303e-05 0.0000000000000000e+00  0.0000000000000000e+00 0.0000000000000000e+00 0.0000000000000000e+00  0.0000000000000000e+00 0.0000000000000000e+00 0.0000000000000000e+00  9.7947843061159027e-05 2.6807383516925350e-05 0.0000000000000000e+00  1.9532923715796907e-04 5.4824899256682331e-05 0.0000000000000000e+00  2.9166835313451244e-04 8.5375545077000437e-05 0.0000000000000000e+00  3.8676523749849387e-04 1.2000486338395333e-04 0.0000000000000000e+00  3.8771499782555183e-04 2.1310979822571302e-05 0.0000000000000000e+00  3.9117089883607451e-04 -7.8827360031497815e-05 0.0000000000000000e+00  2.9945382167485476e-04 -5.8829955350943668e-05 0.0000000000000000e+00  2.0676952236847528e-04 -4.4422326242762849e-05 0.0000000000000000e+00  1.1240241428321186e-04 -3.4538516754751884e-05 0.0000000000000000e+00  1.5455959025473069e-05 -2.8610466227454388e-05 0.0000000000000000e+00  -8.5197266297465339e-05 -2.6411131801970313e-05 0.0000000000000000e+00  -1.9084863662856288e-04 -2.7915532379816060e-05 0.0000000000000000e+00  -1.9279783389248358e-04 1.0637112926935647e-05 0.0000000000000000e+00  -1.9028216345020458e-04 4.8522773619851299e-05 0.0000000000000000e+00  -1.3758970690178697e-04 3.3420414083454851e-05 0.0000000000000000e+00  -8.9470248105961254e-05 2.0905469611613730e-05 0.0000000000000000e+00  -4.4089737163030261e-05 1.0050214053516559e-05 0.0000000000000000e+00  0.0000000000000000e+00 0.0000000000000000e+00 0.0000000000000000e+00  0.0000000000000000e+00 0.0000000000000000e+00 0.0000000000000000e+00  1.4413700846802602e-04 2.5018023965280623e-05 0.0000000000000000e+00  2.8994841738648599e-04 5.0934855673843315e-05 0.0000000000000000e+00  4.3929699066338508e-04 7.8664623518507975e-05 0.0000000000000000e+00  5.9445167117012324e-04 1.0913391217499659e-04 0.0000000000000000e+00  5.9938717722023073e-04 1.6873805055051071e-05 0.0000000000000000e+00  5.9735100263773929e-04 -7.5234404404071243e-05 0.0000000000000000e+00  4.5323836277007539e-04 -5.6598723720028929e-05 0.0000000000000000e+00  3.1392146953365636e-04 -4.1533337519726418e-05 0.0000000000000000e+00  1.7615471898951604e-04 -2.9681126898223885e-05 0.0000000000000000e+00  3.6795465690505746e-05 -2.0693011363033812e-05 0.0000000000000000e+00  -1.0739679340361948e-04 -1.4267653741657321e-05 0.0000000000000000e+00  -2.5995576891507010e-04 -1.0136298274258046e-05 0.0000000000000000e+00  -2.6470414337386046e-04 1.0452481052522079e-05 0.0000000000000000e+00  -2.5903895166883327e-04 3.0801493001410277e-05 0.0000000000000000e+00  -1.8440194371049481e-04 2.1209221169554279e-05 0.0000000000000000e+00  -1.1841052716794966e-04 1.3251678075871532e-05 0.0000000000000000e+00  -5.7883261982779513e-05 6.3623100601560960e-06 0.0000000000000000e+00  0.0000000000000000e+00 0.0000000000000000e+00 0.0000000000000000e+00  0.0000000000000000e+00 0.0000000000000000e+00 0.0000000000000000e+00  1.8363712748829149e-04 1.9633657300016353e-05 0.0000000000000000e+00  3.7043112234772744e-04 3.9793742612192317e-05 0.0000000000000000e+00  5.6372117452510519e-04 6.0996594686387641e-05 0.0000000000000000e+00  7.6721730320692685e-04 8.3733130407327738e-05 0.0000000000000000e+00  7.7471009037123834e-04 1.3709106490334026e-05 0.0000000000000000e+00  7.6994096050882524e-04 -5.6510644949538456e-05 0.0000000000000000e+00  5.8781265582803039e-04 -4.0083923958716898e-05 0.0000000000000000e+00  4.1486237010104790e-04 -2.5789185331902243e-05 0.0000000000000000e+00  2.4627151452586587e-04 -1.3364921488424524e-05 0.0000000000000000e+00  7.7466002689077768e-05 -2.5221790276023018e-06 0.0000000000000000e+00  -9.6125394032859311e-05 7.0540506964791706e-06 0.0000000000000000e+00  -2.7928712676908570e-04 1.5714815332340707e-05 0.0000000000000000e+00  -2.8515567302400127e-04 1.0098129505204374e-05 0.0000000000000000e+00  -2.7829186393635503e-04 4.1248687598791261e-06 0.0000000000000000e+00  -1.9663459374486800e-04 2.4595799863023672e-06 0.0000000000000000e+00  -1.2549557435665299e-04 1.3254517220922811e-06 0.0000000000000000e+00  -6.1101325390040389e-05 5.6629637491068129e-07 0.0000000000000000e+00  0.0000000000000000e+00 0.0000000000000000e+00 0.0000000000000000e+00  0.0000000000000000e+00 0.0000000000000000e+00 0.0000000000000000e+00  2.1051688638888157e-04 1.2143458693275508e-05 0.0000000000000000e+00  4.2494302742775180e-04 2.4481614310784423e-05 0.0000000000000000e+00  6.4734185280653823e-04 3.7193924033979406e-05 0.0000000000000000e+00  8.8208650003593369e-04 5.0428167377745418e-05 0.0000000000000000e+00  8.9075091385097205e-04 1.1148891693785115e-05 0.0000000000000000e+00  8.8442832229573506e-04 -2.8335386114344584e-05 0.0000000000000000e+00  6.8566015790563122e-04 -1.5039791372856668e-05 0.0000000000000000e+00  4.9835610907807127e-04 -2.5615952858788754e-06 0.0000000000000000e+00  3.1724316359673884e-04 9.2789071828428658e-06 0.0000000000000000e+00  1.3727521715768172e-04 2.0716166239237090e-05 0.0000000000000000e+00  -4.6554928741142723e-05 3.2038923550616483e-05 0.0000000000000000e+00  -2.3939955232403650e-04 4.3594733540177408e-05 0.0000000000000000e+00  -2.4523912626041745e-04 9.4154825028490804e-06 0.0000000000000000e+00  -2.3841681181091523e-04 -2.5093990744725597e-05 0.0000000000000000e+00  -1.6679727319108501e-04 -1.8414036906212932e-05 0.0000000000000000e+00  -1.0560320556708808e-04 -1.2100421056955110e-05 0.0000000000000000e+00  -5.1148371970511764e-05 -6.0009505706120650e-06 0.0000000000000000e+00  -3.0728091477426823e-11 -1.0466294578387096e-11 0.0000000000000000e+00  0.0000000000000000e+00 0.0000000000000000e+00 0.0000000000000000e+00  2.2176612322537712e-04 3.8741980061802188e-06 0.0000000000000000e+00  4.4757737336674155e-04 7.6725182086530893e-06 0.0000000000000000e+00  6.8160043835519240e-04 1.1302987838044374e-05 0.0000000000000000e+00  9.2824495167879897e-04 1.4641020146674188e-05 0.0000000000000000e+00  9.3693514220411606e-04 9.2207908826537972e-06 0.0000000000000000e+00  9.3027060729017601e-04 3.5882834111230782e-06 0.0000000000000000e+00  7.3763778376192111e-04 1.3274211385199189e-05 0.0000000000000000e+00  5.5707898580326424e-04 2.3217112935454779e-05 0.0000000000000000e+00  3.8363329976898294e-04 3.3535988940667756e-05 0.0000000000000000e+00  2.1253698508214149e-04 4.4412718224689779e-05 0.0000000000000000e+00  3.9082236542136345e-05 5.6091637202609960e-05 0.0000000000000000e+00  -1.4152202238466971e-04 6.8881347302646216e-05 0.0000000000000000e+00  -1.4640629366459405e-04 8.5904599639054417e-06 0.0000000000000000e+00  -1.4057098204765833e-04 -5.2006904540861568e-05 0.0000000000000000e+00  -9.5261708797169688e-05 -3.7821271058188179e-05 0.0000000000000000e+00  -5.8756366469100147e-05 -2.4667982638358743e-05 0.0000000000000000e+00  -2.7970694700184366e-05 -1.2173632232598680e-05 0.0000000000000000e+00  0.0000000000000000e+00 0.0000000000000000e+00 0.0000000000000000e+00  0.0000000000000000e+00 0.0000000000000000e+00 0.0000000000000000e+00  2.1684083895540438e-04 -4.0918423065312348e-06 0.0000000000000000e+00  4.3737702164343116e-04 -8.4657314002394211e-06 0.0000000000000000e+00  6.6539354305951166e-04 -1.3419104855796692e-05 0.0000000000000000e+00  9.0485297485804036e-04 -1.9280009266866481e-05 0.0000000000000000e+00  9.1269598251065784e-04 7.8227918235240571e-06 0.0000000000000000e+00  9.0659503902058305e-04 3.4697016585702548e-05 0.0000000000000000e+00  7.4130882156980783e-04 4.0559640953292837e-05 0.0000000000000000e+00  5.8734498114626163e-04 4.7491214105971494e-05 0.0000000000000000e+00  4.4062683773473082e-04 5.5560888734746349e-05 0.0000000000000000e+00  2.9723857317053118e-04 6.4899645852783177e-05 0.0000000000000000e+00  1.5332920437049813e-04 7.5700173767767452e-05 0.0000000000000000e+00  5.0175909669108066e-06 8.8217887998601232e-05 0.0000000000000000e+00  1.7286868493984503e-06 7.7137363561778868e-06 0.0000000000000000e+00  5.8901508751548035e-06 -7.3082584739668973e-05 0.0000000000000000e+00  1.1483641858067847e-05 -5.3097726360206367e-05 0.0000000000000000e+00  1.0965323727107337e-05 -3.4598816324720870e-05 0.0000000000000000e+00  6.4645128322525730e-06 -1.7062830989151971e-05 0.0000000000000000e+00  0.0000000000000000e+00 0.0000000000000000e+00 0.0000000000000000e+00  0.0000000000000000e+00 0.0000000000000000e+00 0.0000000000000000e+00  1.9713812659772581e-04 -1.0929954125409609e-05 0.0000000000000000e+00  3.9726443508213063e-04 -2.2286942315447558e-05 0.0000000000000000e+00  6.0342660023534743e-04 -3.4512182092674006e-05 0.0000000000000000e+00  8.1879363537628062e-04 -4.8075309921452057e-05 0.0000000000000000e+00  8.2515017438877217e-04 6.8628453152783019e-06 0.0000000000000000e+00  8.2028177907115737e-04 6.1559711894974595e-05 0.0000000000000000e+00  6.9968224446346041e-04 6.3569402037104428e-05 0.0000000000000000e+00  5.8862550005671171e-04 6.7211734180979769e-05 0.0000000000000000e+00  4.8430326426160555e-04 7.2508183447677911e-05 0.0000000000000000e+00  3.8403201918748501e-04 7.9538094871519884e-05 0.0000000000000000e+00  2.8519812780811822e-04 8.8438415297241633e-05 0.0000000000000000e+00  1.8520426971619589e-04 9.9405048927551465e-05 0.0000000000000000e+00  1.8389393795425110e-04 6.8812768546142977e-06 0.0000000000000000e+00  1.8595939281576112e-04 -8.5919210156991678e-05 0.0000000000000000e+00  1.4266767317149264e-04 -6.2428741602920491e-05 0.0000000000000000e+00  9.6611153799614741e-05 -4.0676815748477490e-05 0.0000000000000000e+00  4.8750718744912334e-05 -2.0058731815424754e-05 0.0000000000000000e+00  0.0000000000000000e+00 0.0000000000000000e+00 0.0000000000000000e+00  0.0000000000000000e+00 0.0000000000000000e+00 0.0000000000000000e+00  1.6548853805661747e-04 -1.6060179481627113e-05 0.0000000000000000e+00  3.3301968199298459e-04 -3.2635856567893792e-05 0.0000000000000000e+00  5.0466813167948166e-04 -5.0255586432240285e-05 0.0000000000000000e+00  6.8257296803640635e-04 -6.9473905158460558e-05 0.0000000000000000e+00  6.8702235337498262e-04 6.2627773154106775e-06 0.0000000000000000e+00  6.8383433758867958e-04 8.1747048119420790e-05 0.0000000000000000e+00  6.1987682833902628e-04 8.0047576717912034e-05 0.0000000000000000e+00  5.6296572628228975e-04 8.0314500446806910e-05 0.0000000000000000e+00  5.1177837684023518e-04 8.2520818042827450e-05 0.0000000000000000e+00  4.6508331961344777e-04 8.6693128011975442e-05 0.0000000000000000e+00  4.2172182021944413e-04 9.2911306356909613e-05 0.0000000000000000e+00  3.8059065048573151e-04 1.0130859702531874e-04 0.0000000000000000e+00  3.8141020906526054e-04 6.1861467795689032e-06 0.0000000000000000e+00  3.8119064895516814e-04 -8.9199206702222149e-05 0.0000000000000000e+00  2.8489947414563012e-04 -6.4803864316088653e-05 0.0000000000000000e+00  1.894647