<?xml version="1.0"?>
<VTKFile type="UnstructuredGrid"  version="0.1"  >
<UnstructuredGrid>
<Piece  NumberOfPoints="589" NumberOfCells="1080">
<Points>
<DataArray  type="Float64"  NumberOfComponents="3"  format="ascii">-9 0 0  -8 0 0  -7 0 0  -6 0 0  -5 0 0  -4 0 0  -3 0 0  -2 0 0  -1 0 0  0 0 0  1 0 0  2 0 0  3 0 0  4 0 0  5 0 0  6 0 0  7 0 0  8 0 0  9 0 0  -9 2 0  -8.000004653872944 1.999992515935764 0  -7.000009807323614 1.999985981761053 0  -6.000016629704128 1.999981172487853 0  -5.000027788279676 1.999978438019702 0  -4.000016074033827 1.999983757491874 0  -3.000004000643547 1.999988964327262 0  -1.999998159265487 1.999993915829537 0  -0.9999972958689436 1.999997817149826 0  4.814768364546011e-07 1.999999472462437 0  0.9999981177036935 1.999998131235664 0  1.999998503488215 1.999994055310215 0  3.000003616192804 1.99998901442117 0  4.000014157326373 1.999983450638369 0  5.000029583431071 1.999980624780513 0  6.000018140717916 1.999981732679214 0  7.000010895348101 1.999986027932531 0  8.000005224902912 1.999992468518982 0  9 2 0  -9.000000000004983 4 0  -8.000007309374887 3.999981232640192 0  -7.000012938959918 3.999965064155862 0  -6.000015914592958 3.999954045887211 0  -5.000016465551059 3.999950621191548 0  -3.999999107301339 3.999952924413991 0  -2.99998746045157 3.999967781585748 0  -1.999984483314802 3.999987231962788 0  -0.9999890346636936 4.000002863550857 0  2.327324679039224e-06 4.000009014263111 0  0.9999935640349705 4.000003636182035 0  1.999988616610383 3.999989561636873 0  2.999991452890711 3.999970470429319 0  4.000003304149247 3.999950979172473 0  5.000021242400526 3.999943461468125 0  6.000019491940492 3.999950716218879 0  7.000015490861115 3.999963474962076 0  8.000008667449835 3.999980573898518 0  9 4 0  -9 6 0  -8.000016683630877 5.999959555497094 0  -7.000026686387241 5.999923547228732 0  -6.000024898155185 5.999896546501102 0  -5.000009826087942 5.99988296873611 0  -3.999975598721901 5.99990486812254 0  -2.999959960286102 5.999951205279195 0  -1.999965915988742 5.999999920411781 0  -0.9999811477875546 6.000027123432991 0  3.262603412314267e-06 6.000032451772896 0  0.9999891116562881 6.000023168456072 0  1.999978310241927 5.999997749774889 0  2.999974418301286 5.99995484261253 0  3.999983017105251 5.999910090590212 0  5.000013238501849 5.999887194149117 0  6.000029845644417 5.999897685332253 0  7.000031375187446 5.999923563023909 0  8.000019485385335 5.999959372348884 0  9 6 0  -9 8 0  -8.000052776686427 7.999920145266711 0  -7.000087594817031 7.999846008480938 0  -6.000087015180528 7.999785363606556 0  -5.000036010879672 7.999751034318486 0  -3.999969893028683 7.999853210522834 0  -2.999981116305714 7.999973624152578 0  -2.00000515642902 8.00003287340137 0  -1.000006988707757 8.000040336605046 0  7.738953486625425e-06 8.000042619996519 0  1.000018506363417 8.000048587358846 0  2.000013479146118 8.000022650072879 0  2.999983904436044 7.999978580788442 0  3.999973933840049 7.999870643856357 0  5.00004076958348 7.999749019492296 0  6.000100503613991 7.999783120519364 0  7.000100929636006 7.999843933926267 0  8.000060679319532 7.999918904652294 0  9 8 0  -9 10 0  -8.000160665389386 9.999857894446654 0  -7.00029004897228 9.999714549954584 0  -6.000350790192688 9.999568998328927 0  -5.000290802508316 9.999420906152363 0  -4.000186383707393 9.999749795790262 0  -3.000201694455033 10.00003317175031 0  -2.00015859569457 9.999986651183169 0  -1.000066867896242 9.999971738316846 0  1.369636334545981e-06 9.99996808707494 0  1.000069489558532 9.999968132289036 0  2.000160740368852 9.999965441142134 0  3.000240283637758 10.00006962592519 0  4.000229711713916 9.99978870659355 0  5.000353027943652 9.999418589233411 0  6.000408305321207 9.999561775027178 0  7.000333133208585 9.999707714243215 0  8.000183552138839 9.999853963124844 0  9 10 0  -9 12 0  -8.00039350336996 11.9998006655645 0  -7.000766781498346 11.99959203153276 0  -6.001096918549832 11.99936298876173 0  -5.001355436679476 11.99909807059584 0  -4.001301882509148 11.99969585213143 0  -3.001347922411568 12.00028750767067 0  -2.000907826905642 12.00021910348306 0  -1.000421190045159 12.00018362874297 0  8.228861088076765e-05 12.00017959515691 0  1.000589057706454 12.00020850345683 0  2.001087184817643 12.00027798607056 0  3.001552847870081 12.00040687625398 0  4.001499090516484 11.99973150597526 0  5.001536546501804 11.99905043172304 0  6.001237464804266 11.99932957626127 0  7.000862751401345 11.99957035448296 0  8.000442173293084 11.99978993083782 0  9 12 0  -9 14 0  -8.000706876704864 13.99978070944796 0  -7.00141549238571 13.99955127684833 0  -6.002128519314867 13.99930066890919 0  -5.002851082059401 13.99901610602918 0  -4.002858179809073 13.99971192045432 0  -3.002860326002518 14.00041638401652 0  -2.001843915926718 14.00031997586554 0  -1.000843162941913 14.00026987687218 0  0.0001501748087984077 14.00025945185089 0  1.001143795628948 14.00028672475381 0  2.00214459127193 14.0003531147372 0  3.003157584313191 14.000462156542 0  4.003164501300149 13.99970480842318 0  5.003171643225607 13.99895181228689 0  6.002368180221498 13.99925116170655 0  7.001575257860901 13.99951799373813 0  8.000786817970884 13.99976403275932 0  9 14 0  -9 16 0  -8.001012797432772 15.99980137063947 0  -7.002045738408881 15.99959532805186 0  -6.003120654484657 15.99937432652382 0  -5.004262858584554 15.99913067836073 0  -4.004303695936631 15.9997192435638 0  -3.00426290344037 16.00030441014838 0  -2.002718684805701 16.00023602369021 0  -1.001236026230071 16.00019776322849 0  0.0002169948290501342 16.00018882170022 0  1.001670511531223 16.00020878110536 0  2.003154592995746 16.000257942119 0  3.004701152575126 16.00033717183973 0  4.00474503990168 15.99968487586028 0  5.004708045034183 15.99903185025299 0  6.003455083900959 15.99930303861049 0  7.002268830612609 15.99954896050487 0  8.001124372617396 15.99977850436298 0  9 16 0  -9 18 0  -8.001237620011166 17.99985169708643 0  -7.002507146445575 17.9996992676939 0  -6.003842122922689 17.99953865543811 0  -5.005279370262575 17.99936596654181 0  -4.005341394972935 17.99971963470289 0  -3.005279676274573 18.00007258336046 0  -2.003348914591389 18.00003191364526 0  -1.001511111811501 18.00000873267086 0  0.0002818433368347537 18.00000294429293 0  1.002075754244081 18.00001438196042 0  2.003916362199262 18.00004283361138 0  3.005851575546261 18.00008795240173 0  4.005916316504565 17.99966963498089 0  5.005855732491742 17.9992522220179 0  6.004273259094384 17.99945612670793 0  7.002794024673016 17.99964552943584 0  8.001380896120322 17.99982520292982 0  9 18 0  -9 20 0  -8.001334333379782 19.99991852168959 0  -7.002705791401834 19.99983595269526 0  -6.004152916938718 19.99975132173246 0  -5.005717094574975 19.99966389544045 0  -4.00578798049949 19.99971791714869 0  -3.005716277620745 19.99977118523452 0  -2.003609236963431 19.99975810531412 0  -1.001607706559473 19.99975039877812 0  0.0003428661249686662 19.99974842943377 0  1.002295096181727 19.99975218680635 0  2.004301605821099 19.99976129989936 0  3.006416980407482 19.99977500376805 0  4.006490650484812 19.99966154694404 0  5.006418850398313 19.99954867207484 0  6.004676516289678 19.99966726612118 0  7.003053579612547 19.99978103705621 0  8.00150784769189 19.99989139949975 0  8.999999999983451 19.99999999999742 0  -9 22 0  -8.001282096929618 21.99998970130587 0  -7.002600801524417 21.99998088640355 0  -6.003993881939338 21.99997517601162 0  -5.005501421417837 21.99997446789095 0  -4.005570719743269 21.99971340298264 0  -3.005500370885357 21.99945155089516 0  -2.003449494334821 21.99946289041218 0  -1.001501389998554 21.99946921201999 0  0.0003972816828826951 21.99947110507387 0  1.002298285268292 21.99946866065685 0  2.004253415686891 21.99946148133664 0  3.006316106515257 21.99944867209318 0  4.006387726808605 21.99965845430789 0  5.006315342843313 21.99986851810747 0  6.004600295986691 21.99989769199892 0  7.003003174715105 21.99993016722932 0  8.001482714256372 21.99996462232049 0  9 22 0  -9 24 0  -8.001082957247686 24.00005494881537 0  -7.002197309676133 24.00011340633149 0  -6.003375346947228 24.00017902463697 0  -5.004651110287828 24.00025574947434 0  -4.004710514211444 23.9997064113346 0  -3.004650468395616 23.9991563664281 0  -2.002880599118059 23.99918766927813 0  -1.001198229843819 23.9992056673522 0  0.0004424294275648795 23.9992110591701 0  1.002085981061352 23.99920399882233 0  2.003777068712497 23.99918409789435 0  3.005561608302217 23.99915042180909 0  4.005622338841262 23.99965928111155 0  5.005558195953785 24.00016825109042 0  6.004050570666716 24.00011489599882 0  7.002645051187751 24.00007136470414 0  8.001306106411606 24.00003414121688 0  9 24 0  -9 26 0  -8.000757689408532 26.00010617434098 0  -7.001537997611036 26.00021729488122 0  -6.002364169497388 26.00033845516435 0  -5.003260613469869 26.00047505093336 0  -4.003303783257817 25.99969743015283 0  -3.003260837235477 25.99891923095796 0  -2.001963582384965 25.99896549193329 0  -1.00072907975228 25.99899237023831 0  0.0004760923578059347 25.99900064387435 0  1.001684561895773 25.99899051821916 0  2.002929001883537 25.99896162784291 0  3.004242971709033 25.99891303465145 0  4.004286159099781 25.99966295780478 0  5.004237034309763 26.00041284622372 0  6.003090649776166 26.0002927971638 0  7.002019556416576 26.00018732941911 0  8.000997640736024 26.00009133330583 0  9 26 0  -9 28 0  -8.000341302484978 28.00013762919535 0  -7.000694062314404 28.00028103711249 0  -6.001070080037247 28.00043615315437 0  -5.001481720468929 28.00060921132543 0  -4.001504346712458 27.99968722433388 0  -3.001483017958386 27.99876484933853 0  -2.000797404932473 27.99882065369175 0  -1.000143446616051 27.99885330027746 0  0.0004966475948572966 27.99886363153436 0  1.001140272046055 27.99885189988108 0  2.001804866602633 27.99881776859617 0  3.002508358480068 27.99876031076181 0  4.002529629636886 27.99966864619408 0  5.00250030310242 28.00057686240402 0  6.001827760572158 28.00041237716738 0  7.001196222765161 28.000265
[...]
<PointData  Vectors="f_42"> 
<DataArray  type="Float64"  Name="f_42"  NumberOfComponents="3" format="ascii">0.0000000000000000e+00 0.0000000000000000e+00 0.0000000000000000e+00  0.0000000000000000e+00 0.0000000000000000e+00 0.0000000000000000e+00  0.0000000000000000e+00 0.0000000000000000e+00 0.0000000000000000e+00  0.0000000000000000e+00 0.0000000000000000e+00 0.0000000000000000e+00  0.0000000000000000e+00 0.0000000000000000e+00 0.0000000000000000e+00  0.0000000000000000e+00 0.0000000000000000e+00 0.0000000000000000e+00  0.0000000000000000e+00 0.0000000000000000e+00 0.0000000000000000e+00  0.0000000000000000e+00 0.0000000000000000e+00 0.0000000000000000e+00  0.0000000000000000e+00 0.0000000000000000e+00 0.0000000000000000e+00  0.0000000000000000e+00 0.0000000000000000e+00 0.0000000000000000e+00  0.0000000000000000e+00 0.0000000000000000e+00 0.0000000000000000e+00  0.0000000000000000e+00 0.0000000000000000e+00 0.0000000000000000e+00  0.0000000000000000e+00 0.0000000000000000e+00 0.0000000000000000e+00  0.0000000000000000e+00 0.0000000000000000e+00 0.0000000000000000e+00  0.0000000000000000e+00 0.0000000000000000e+00 0.0000000000000000e+00  0.0000000000000000e+00 0.0000000000000000e+00 0.0000000000000000e+00  0.0000000000000000e+00 0.0000000000000000e+00 0.0000000000000000e+00  0.0000000000000000e+00 0.0000000000000000e+00 0.0000000000000000e+00  0.0000000000000000e+00 0.0000000000000000e+00 0.0000000000000000e+00  0.0000000000000000e+00 0.0000000000000000e+00 0.0000000000000000e+00  -4.6538729546236851e-06 -7.4840642342596873e-06 0.0000000000000000e+00  -9.8073236099020889e-06 -1.4018238947008202e-05 0.0000000000000000e+00  -1.6629704128351284e-05 -1.8827512147251103e-05 0.0000000000000000e+00  -2.7788279685736619e-05 -2.1561980299731932e-05 0.0000000000000000e+00  -1.6074033825614363e-05 -1.6242508124885824e-05 0.0000000000000000e+00  -4.0006435504280533e-06 -1.1035672737446886e-05 0.0000000000000000e+00  1.8407345150136853e-06 -6.0841704633590600e-06 0.0000000000000000e+00  2.7041310554690637e-06 -2.1828501730091652e-06 0.0000000000000000e+00  4.8147683645460111e-07 -5.2753756458620877e-07 0.0000000000000000e+00  -1.8822963057304202e-06 -1.8687643349685024e-06 0.0000000000000000e+00  -1.4965117856942206e-06 -5.9446897829915397e-06 0.0000000000000000e+00  3.6161928065649978e-06 -1.0985578832261894e-05 0.0000000000000000e+00  1.4157326375083191e-05 -1.6549361631379061e-05 0.0000000000000000e+00  2.9583431069952121e-05 -1.9375219486121982e-05 0.0000000000000000e+00  1.8140717912934652e-05 -1.8267320785528986e-05 0.0000000000000000e+00  1.0895348097764028e-05 -1.3972067470391227e-05 0.0000000000000000e+00  5.2249029069386284e-06 -7.5314810196901994e-06 0.0000000000000000e+00  0.0000000000000000e+00 0.0000000000000000e+00 0.0000000000000000e+00  -4.9820587634006413e-12 0.0000000000000000e+00 0.0000000000000000e+00  -7.3093748798430958e-06 -1.8767359809831823e-05 0.0000000000000000e+00  -1.2938959911611502e-05 -3.4935844137857979e-05 0.0000000000000000e+00  -1.5914592957973087e-05 -4.5954112790307294e-05 0.0000000000000000e+00  -1.6465551067254954e-05 -4.9378808450456320e-05 0.0000000000000000e+00  8.9269865906828435e-07 -4.7075586008620046e-05 0.0000000000000000e+00  1.2539548428740155e-05 -3.2218414250694439e-05 0.0000000000000000e+00  1.5516685197791459e-05 -1.2768037213313228e-05 0.0000000000000000e+00  1.0965336306461821e-05 2.8635508581643085e-06 0.0000000000000000e+00  2.3273246790392244e-06 9.0142631138813028e-06 0.0000000000000000e+00  -6.4359650292533450e-06 3.6361820405919990e-06 0.0000000000000000e+00  -1.1383389616782812e-05 -1.0438363127352034e-05 0.0000000000000000e+00  -8.5471092864050375e-06 -2.9529570681207841e-05 0.0000000000000000e+00  3.3041492453621274e-06 -4.9020827525378993e-05 0.0000000000000000e+00  2.1242400520753063e-05 -5.6538531873933710e-05 0.0000000000000000e+00  1.9491940487089144e-05 -4.9283781118722908e-05 0.0000000000000000e+00  1.5490861115895555e-05 -3.6525037924255126e-05 0.0000000000000000e+00  8.6674498461886419e-06 -1.9426101484117252e-05 0.0000000000000000e+00  0.0000000000000000e+00 0.0000000000000000e+00 0.0000000000000000e+00  0.0000000000000000e+00 0.0000000000000000e+00 0.0000000000000000e+00  -1.6683630889156705e-05 -4.0444502912328197e-05 0.0000000000000000e+00  -2.6686387236041855e-05 -7.6452771267236796e-05 0.0000000000000000e+00  -2.4898155191681762e-05 -1.0345349889333548e-04 0.0000000000000000e+00  -9.8260879401921822e-06 -1.1703126388575385e-04 0.0000000000000000e+00  2.4401278100502437e-05 -9.5131877453829072e-05 0.0000000000000000e+00  4.0039713899533972e-05 -4.8794720802125297e-05 0.0000000000000000e+00  3.4084011258632916e-05 -7.9588224339764043e-08 0.0000000000000000e+00  1.8852212445355367e-05 2.7123432993538696e-05 0.0000000000000000e+00  3.2626034123142674e-06 3.2451772891833960e-05 0.0000000000000000e+00  -1.0888343712315968e-05 2.3168456074245629e-05 0.0000000000000000e+00  -2.1689758071661324e-05 -2.2502251130239749e-06 0.0000000000000000e+00  -2.5581698715589701e-05 -4.5157387464026570e-05 0.0000000000000000e+00  -1.6982894748685449e-05 -8.9909409788096694e-05 0.0000000000000000e+00  1.3238501850793116e-05 -1.1280585088443998e-04 0.0000000000000000e+00  2.9845644410190722e-05 -1.0231466774500512e-04 0.0000000000000000e+00  3.1375187441869348e-05 -7.6436976090544449e-05 0.0000000000000000e+00  1.9485385335609481e-05 -4.0627651116145249e-05 0.0000000000000000e+00  0.0000000000000000e+00 0.0000000000000000e+00 0.0000000000000000e+00  0.0000000000000000e+00 0.0000000000000000e+00 0.0000000000000000e+00  -5.2776686437919036e-05 -7.9854733287128973e-05 0.0000000000000000e+00  -8.7594817033566428e-05 -1.5399151906209338e-04 0.0000000000000000e+00  -8.7015180527900618e-05 -2.1463639344953490e-04 0.0000000000000000e+00  -3.6010879672959301e-05 -2.4896568150362488e-04 0.0000000000000000e+00  3.0106971318335147e-05 -1.4678947716095632e-04 0.0000000000000000e+00  1.8883694284645131e-05 -2.6375847422922152e-05 0.0000000000000000e+00  -5.1564290199999095e-06 3.2873401373297590e-05 0.0000000000000000e+00  -6.9887077562264130e-06 4.0336605048103465e-05 0.0000000000000000e+00  7.7389534866254254e-06 4.2619996515267575e-05 0.0000000000000000e+00  1.8506363417696353e-05 4.8587358831634180e-05 0.0000000000000000e+00  1.3479146118156766e-05 2.2650072871250109e-05 0.0000000000000000e+00  -1.6095563957609522e-05 -2.1419211553960432e-05 0.0000000000000000e+00  -2.6066159951955351e-05 -1.2935614364096508e-04 0.0000000000000000e+00  4.0769583473744305e-05 -2.5098050771084953e-04 0.0000000000000000e+00  1.0050361399262318e-04 -2.1687948063584504e-04 0.0000000000000000e+00  1.0092963600742450e-04 -1.5606607374098950e-04 0.0000000000000000e+00  6.0679319527641149e-05 -8.1095347704758915e-05 0.0000000000000000e+00  0.0000000000000000e+00 0.0000000000000000e+00 0.0000000000000000e+00  0.0000000000000000e+00 0.0000000000000000e+00 0.0000000000000000e+00  -1.6066538938805166e-04 -1.4210555334172328e-04 0.0000000000000000e+00  -2.9004897227748888e-04 -2.8545004541568616e-04 0.0000000000000000e+00  -3.5079019268882683e-04 -4.3100167106799325e-04 0.0000000000000000e+00  -2.9080250831960619e-04 -5.7909384763949227e-04 0.0000000000000000e+00  -1.8638370738971346e-04 -2.5020420973368958e-04 0.0000000000000000e+00  -2.0169445503415238e-04 3.3171750313464705e-05 0.0000000000000000e+00  -1.5859569457464328e-04 -1.3348816825279092e-05 0.0000000000000000e+00  -6.6867896243256038e-05 -2.8261683157699833e-05 0.0000000000000000e+00  1.3696363345459808e-06 -3.1912925067795005e-05 0.0000000000000000e+00  6.9489558534231152e-05 -3.1867710965326303e-05 0.0000000000000000e+00  1.6074036885472826e-04 -3.4558857872046021e-05 0.0000000000000000e+00  2.4028363775734077e-04 6.9625925191299385e-05 0.0000000000000000e+00  2.2971171391977346e-04 -2.1129340644894453e-04 0.0000000000000000e+00  3.5302794365903362e-04 -5.8141076659369085e-04 0.0000000000000000e+00  4.0830532121398247e-04 -4.3822497282026697e-04 0.0000000000000000e+00  3.3313320858434429e-04 -2.9228575678209140e-04 0.0000000000000000e+00  1.8355213883057425e-04 -1.4603687515521199e-04 0.0000000000000000e+00  0.0000000000000000e+00 0.0000000000000000e+00 0.0000000000000000e+00  0.0000000000000000e+00 0.0000000000000000e+00 0.0000000000000000e+00  -3.9350336995944238e-04 -1.9933443550128460e-04 0.0000000000000000e+00  -7.6678149834601410e-04 -4.0796846723699577e-04 0.0000000000000000e+00  -1.0969185498327643e-03 -6.3701123824834341e-04 0.0000000000000000e+00  -1.3554366794730128e-03 -9.0192940415881936e-04 0.0000000000000000e+00  -1.3018825091496969e-03 -3.0414786857095978e-04 0.0000000000000000e+00  -1.3479224115692553e-03 2.8750767067115451e-04 0.0000000000000000e+00  -9.0782690564198711e-04 2.1910348306546581e-04 0.0000000000000000e+00  -4.2119004515821928e-04 1.8362874297069416e-04 0.0000000000000000e+00  8.2288610880767651e-05 1.7959515691590619e-04 0.0000000000000000e+00  5.8905770645294533e-04 2.0850345682769792e-04 0.0000000000000000e+00  1.0871848176404269e-03 2.7798607055896056e-04 0.0000000000000000e+00  1.5528478700801678e-03 4.0687625396295437e-04 0.0000000000000000e+00  1.4990905164869678e-03 -2.6849402473250579e-04 0.0000000000000000e+00  1.5365465017961437e-03 -9.4956827694934608e-04 0.0000000000000000e+00  1.2374648042646188e-03 -6.7042373872021343e-04 0.0000000000000000e+00  8.6275140135256959e-04 -4.2964551704555138e-04 0.0000000000000000e+00  4.4217329307912517e-04 -2.1006916218418276e-04 0.0000000000000000e+00  0.0000000000000000e+00 0.0000000000000000e+00 0.0000000000000000e+00  0.0000000000000000e+00 0.0000000000000000e+00 0.0000000000000000e+00  -7.0687670487415703e-04 -2.1929055204275694e-04 0.0000000000000000e+00  -1.4154923857122219e-03 -4.4872315167639924e-04 0.0000000000000000e+00  -2.1285193148679374e-03 -6.9933109081459790e-04 0.0000000000000000e+00  -2.8510820594057763e-03 -9.8389397081593481e-04 0.0000000000000000e+00  -2.8581798090749071e-03 -2.8807954567548793e-04 0.0000000000000000e+00  -2.8603260025166369e-03 4.1638401651948072e-04 0.0000000000000000e+00  -1.8439159267167862e-03 3.1997586553424650e-04 0.0000000000000000e+00  -8.4316294191171253e-04 2.6987687216759650e-04 0.0000000000000000e+00  1.5017480879840769e-04 2.5945185088426431e-04 0.0000000000000000e+00  1.1437956289467137e-03 2.8672475381392320e-04 0.0000000000000000e+00  2.1445912719342606e-03 3.5311473719635709e-04 0.0000000000000000e+00  3.1575843131920354e-03 4.6215654199181213e-04 0.0000000000000000e+00  3.1645013001399295e-03 -2.9519157682243686e-04 0.0000000000000000e+00  3.1716432256118695e-03 -1.0481877131104560e-03 0.0000000000000000e+00  2.3681802214952689e-03 -7.4883829345191667e-04 0.0000000000000000e+00  1.5752578608988421e-03 -4.8200626188054583e-04 0.0000000000000000e+00  7.8681797087915689e-04 -2.3596724068197537e-04 0.0000000000000000e+00  0.0000000000000000e+00 0.0000000000000000e+00 0.0000000000000000e+00  0.0000000000000000e+00 0.0000000000000000e+00 0.0000000000000000e+00  -1.0127974327616264e-03 -1.9862936053598616e-04 0.0000000000000000e+00  -2.0457384088831071e-03 -4.0467194814263233e-04 0.0000000000000000e+00  -3.1206544846558888e-03 -6.2567347617098923e-04 0.0000000000000000e+00  -4.2628585845549587e-03 -8.6932163927028107e-04 0.0000000000000000e+00  -4.3036959366290189e-03 -2.8075643618767100e-04 0.0000000000000000e+00  -4.2629034403701667e-03 3.0441014838740650e-04 0.0000000000000000e+00  -2.7186848057023528e-03 2.3602369020767853e-04 0.0000000000000000e+00  -1.2360262300707074e-03 1.9776322849024021e-04 0.0000000000000000e+00  2.1699482905013416e-04 1.8882170021763102e-04 0.0000000000000000e+00  1.6705115312226888e-03 2.0878110536029677e-04 0.0000000000000000e+00  3.1545929957435014e-03 2.5794211898770407e-04 0.0000000000000000e+00  4.7011525751306507e-03 3.3717183972357013e-04 0.0000000000000000e+00  4.7450399016765975e-03 -3.1512413969719577e-04 0.0000000000000000e+00  4.7080450341885419e-03 -9.6814974701663536e-04 0.0000000000000000e+00  3.4550839009627183e-03 -6.9696138950632136e-04 0.0000000000000000e+00  2.2688306126053873e-03 -4.5103949513003905e-04 0.0000000000000000e+00  1.1243726174020852e-03 -2.2149563702136829e-04 0.0000000000000000e+00  0.0000000000000000e+00 0.0000000000000000e+00 0.0000000000000000e+00  0.0000000000000000e+00 0.0000000000000000e+00 0.0000000000000000e+00  -1.2376200111505213e-03 -1.4830291355749292e-04 0.0000000000000000e+00  -2.5071464455749953e-03 -3.0073230608565824e-04 0.0000000000000000e+00  -3.8421229226891095e-03 -4.6134456188989115e-04 0.0000000000000000e+00  -5.2793702625781175e-03 -6.3403345816575945e-04 0.0000000000000000e+00  -5.3413949729328117e-03 -2.8036529712307032e-04 0.0000000000000000e+00  -5.2796762745732076e-03 7.2583360469060830e-05 0.0000000000000000e+00  -3.3489145913883664e-03 3.1913645248974535e-05 0.0000000000000000e+00  -1.5111118115036968e-03 8.7326708537998866e-06 0.0000000000000000e+00  2.8184333683475366e-04 2.9442929330980868e-06 0.0000000000000000e+00  2.0757542440821603e-03 1.4381960424380985e-05 0.0000000000000000e+00  3.9163621992578893e-03 4.2833611372026479e-05 0.0000000000000000e+00  5.8515755462616526e-03 8.7952401717672162e-05 0.0000000000000000e+00  5.9163165045640134e-03 -3.3036501912178998e-04 0.0000000000000000e+00  5.8557324917426976e-03 -7.4777798212686316e-04 0.0000000000000000e+00  4.2732590943864394e-03 -5.4387329208833892e-04 0.0000000000000000e+00  2.7940246730227269e-03 -3.5447056415999624e-04 0.0000000000000000e+00  1.3808961203190173e-03 -1.7479707017999826e-04 0.0000000000000000e+00  0.0000000000000000e+00 0.0000000000000000e+00 0.0000000000000000e+00  0.0000000000000000e+00 0.0000000000000000e+00 0.0000000000000000e+00  -1.3343333797736843e-03 -8.1478310421702281e-05 0.0000000000000000e+00  -2.7057914018333204e-03 -1.6404730473955690e-04 0.0000000000000000e+00  -4.1529169387224986e-03 -2.4867826750961484e-04 0.0000000000000000e+00  -5.7170945749753978e-03 -3.3610455953501673e-04 0.0000000000000000e+00  -5.7879804994907507e-03 -2.8208285131096114e-04 0.0000000000000000e+00  -5.7162776207484124e-03 -2.2881476548517680e-04 0.0000000000000000e+00  -3.6092369634307198e-03 -2.4189468587313599e-04 0.0000000000000000e+00  -1.6077065594740959e-03 -2.4960122188264367e-04 0.0000000000000000e+00  3.4286612496866621e-04 -2.5157056620416895e-04 0.0000000000000000e+00  2.2950961817271875e-03 -2.4781319364385051e-04 0.0000000000000000e+00  4.3016058211033416e-03 -2.3870010063935124e-04 0.0000000000000000e+00  6.4169804074840527e-03 -2.2499623197162413e-04 0.0000000000000000e+00  6.4906504848146369e-03 -3.3845305598013818e-04 0.0000000000000000e+00  6.4188503983100683e-03 -4.5132792515179221e-04 0.0000000000000000e+00  4.6765162896770024e-03 -3.3273387882823890e-04 0.0000000000000000e+00  3.0535796125469219e-03 -2.1896294379256375e-04 0.0000000000000000e+00  1.5078476918698363e-03 -1.0860050026826767e-04 0.0000000000000000e+00  -1.6551596550818155e-11 -2.5764831542436184e-12 0.0000000000000000e+00  0.0000000000000000e+00 0.0000000000000000e+00 0.0000000000000000e+00  -1.2820969296115851e-03 -1.0298694121736714e-05 0.0000000000000000e+00  -2.6008015244197743e-03 -1.9113596450203326e-05 0.0000000000000000e+00  -3.9938819393384121e-03 -2.4823988376609451e-05 0.0000000000000000e+00  -5.5014214178364523e-03 -2.5532109033776987e-05 0.0000000000000000e+00  -5.5707197432695804e-03 -2.8659701733766790e-04 0.0000000000000000e+00  -5.5003708853584654e-03 -5.4844910484386667e-04 0.0000000000000000e+00  -3.4494943348179524e-03 -5.3710958779684377e-04 0.0000000000000000e+00  -1.5013899985550354e-03 -5.3078798000233147e-04 0.0000000000000000e+00  3.9728168288269514e-04 -5.2889492615919330e-04 0.0000000000000000e+00  2.2982852682916135e-03 -5.3133934316220387e-04 0.0000000000000000e+00  4.2534156868906181e-03 -5.3851866338263494e-04 0.0000000000000000e+00  6.3161065152570282e-03 -5.5132790683074927e-04 0.0000000000000000e+00  6.3877268086094509e-03 -3.4154569209944076e-04 0.0000000000000000e+00  6.3153428433122497e-03 -1.3148189253285957e-04 0.0000000000000000e+00  4.6002959866874018e-03 -1.0230800106848866e-04 0.0000000000000000e+00  3.0031747151003977e-03 -6.9832770672574861e-05 0.0000000000000000e+00  1.4827142563679971e-03 -3.5377679494163556e-05 0.0000000000000000e+00  0.0000000000000000e+00 0.0000000000000000e+00 0.0000000000000000e+00  0.0000000000000000e+00 0.0000000000000000e+00 0.0000000000000000e+00  -1.0829572476761405e-03 5.4948815360317949e-05 0.0000000000000000e+00  -2.1973096761347547e-03 1.1340633151986288e-04 0.0000000000000000e+00  -3.3753469472321790e-03 1.7902463697654417e-04 0.0000000000000000e+00  -4.6511102878177826e-03 2.5574947433412465e-04 0.0000000000000000e+00  -4.7105142114451711e-03 -2.9358866538588719e-04 0.0000000000000000e+00  -4.6504683956152754e-03 -8.4363357191614811e-04 0.0000000000000000e+00  -2.8805991180556358e-03 -8.1233072187534693e-04 0.0000000000000000e+00  -1.1982298438193931e-03 -7.9433264780226216e-04 0.0000000000000000e+00  4.4242942756487954e-04 -7.8894082991006072e-04 0.0000000000000000e+00  2.0859810613498681e-03 -7.9600117766425696e-04 0.0000000000000000e+00  3.7770687125010340e-03 -8.1590210563129047e-04 0.0000000000000000e+00  5.5616083022143829e-03 -8.4957819090889452e-04 0.0000000000000000e+00  5.6223388412523587e-03 -3.4071888845524622e-04 0.0000000000000000e+00  5.5581959537846469e-03 1.6825109041611016e-04 0.0000000000000000e+00  4.0505706667181927e-03 1.1489599884393474e-04 0.0000000000000000e+00  2.6450511877467008e-03 7.1364704140028569e-05 0.0000000000000000e+00  1.3061064116054062e-03 3.4141216891313012e-05 0.0000000000000000e+00  0.0000000000000000e+00 0.0000000000000000e+00 0.0000000000000000e+00  0.0000000000000000e+00 0.0000000000000000e+00 0.0000000000000000e+00  -7.5768940853733740e-04 1.0617434097282708e-04 0.0000000000000000e+00  -1.5379976110381102e-03 2.1729488122627339e-04 0.0000000000000000e+00  -2.3641694973841397e-03 3.3845516433962355e-04 0.0000000000000000e+00  -3.2606134698643630e-03 4.7505093336018978e-04 0.0000000000000000e+00  -3.3037832578206396e-03 -3.0256984716367432e-04 0.0000000000000000e+00  -3.2608372354736323e-03 -1.0807690420351311e-03 0.0000000000000000e+00  -1.9635823849657504e-03 -1.0345080667094441e-03 0.0000000000000000e+00  -7.2907975227999632e-04 -1.0076297616762172e-03 0.0000000000000000e+00  4.7609235780593474e-04 -9.9935612564547500e-04 0.0000000000000000e+00  1.6845618957736261e-03 -1.0094817808301809e-03 0.0000000000000000e+00  2.9290018835380293e-03 -1.0383721571164783e-03 0.0000000000000000e+00  4.2429717090310994e-03 -1.0869653485499498e-03 0.0000000000000000e+00  4.2861590997821707e-03 -3.3704219520673941e-04 0.0000000000000000e+00  4.2370343097591833e-03 4.1284622372812101e-04 0.0000000000000000e+00  3.0906497761651187e-03 2.9279716378371697e-04 0.0000000000000000e+00  2.0195564165747140e-03 1.8732941911810152e-04 0.0000000000000000e+00  9.9764073602938495e-04 9.1333305854486473e-05 0.0000000000000000e+00  0.0000000000000000e+00 0.0000000000000000e+00 0.0000000000000000e+00  0.0000000000000000e+00 0.0000000000000000e+00 0.0000000000000000e+00  -3.4130248497731518e-04 1.3762919536233791e-04 0.0000000000000000e+00  -6.9406231440573003e-04 2.8103711249899638e-04 0.0000000000000000e+00  -1.0700800372515603e-03 4.3615315436971942e-04 0.0000000000000000e+00  -1.4817204689288625e-03 6.0921132542839963e-04 0.0000000000000000e+00  -1.5043467124615983e-03 -3.1277566613040930e-04 0.0000000000000000e+00  -1.4830179583843024e-03 -1.2351506614941869e-03 0.0000000000000000e+00  -7.9740493247382324e-04 -1.1793463082806659e-03 0.0000000000000000e+00  -1.4344661605108711e-04 -1.1466997225523614e-03 0.0000000000000000e+00  4.9664759485729658e-04 -1.1363684656738155e-03 0.0000000000000000e+00  1.1402720460544340e-03 -1.1481001189205266e-03 0.0000000000000000e+00  1.8048666026338278e-03 -1.1822314038276284e-03 0.0000000000000000e+00  2.5083584800711400e-03 -1.2396892381840536e-03 0.0000000000000000e+00  2.5296296368831355e-03 -3.3135380592452362e-04 0.0000000000000000e+00  2.500