<?xml version="1.0"?>
<VTKFile type="UnstructuredGrid"  version="0.1"  >
<UnstructuredGrid>
<Piece  NumberOfPoints="589" NumberOfCells="1080">
<Points>
<DataArray  type="Float64"  NumberOfComponents="3"  format="ascii">-9 0 0  -8 0 0  -7 0 0  -6 0 0  -5 0 0  -4 0 0  -3 0 0  -2 0 0  -1 0 0  0 0 0  1 0 0  2 0 0  3 0 0  4 0 0  5 0 0  6 0 0  7 0 0  8 0 0  9 0 0  -9 2 0  -7.999999663957157 2.000000050745127 0  -6.99999937086418 2.000000100584964 0  -5.999999170230753 2.000000149418712 0  -4.999999130465992 2.000000196874276 0  -3.999999247998207 2.000000083003909 0  -2.999999285413318 2.000000014040163 0  -1.999999288539046 1.999999959541636 0  -0.9999992657225844 1.999999892621807 0  8.068333411376857e-07 1.999999785032902 0  1.000000987695515 1.999999597777552 0  2.000001372450073 1.999999289212218 0  3.000002080969997 1.999998830981106 0  4.00000328638685 1.999998058595581 0  5.000005204239205 1.99999684896358 0  6.000003539788708 1.99999751194798 0  7.000002231926016 1.999998291052465 0  8.000001085594436 1.99999913160756 0  9 2 0  -9.000000000004983 4 0  -7.999999156115086 4.000000105111412 0  -6.999998371889955 4.000000205194316 0  -5.999997696986059 4.000000304350309 0  -4.999997165828258 4.000000425121465 0  -3.999997131682702 4.000000095300693 0  -2.999997024613095 3.999999903886472 0  -1.999996893665948 3.999999770016857 0  -0.9999967495783543 3.999999614146205 0  3.404413173498322e-06 3.999999347759454 0  1.00000362987764 3.999998795531391 0  2.000004054901867 3.999997883017065 0  3.000004834934352 3.999996570300527 0  4.00000603406218 3.999994820315249 0  5.000007452314124 3.999992759575694 0  6.000005653213818 3.999994559424431 0  7.000003817718241 3.999996336310297 0  8.000001928233083 3.999998151872053 0  9 4 0  -9 6 0  -7.999998409615223 6.000000179591622 0  -6.999996935631637 6.000000313511308 0  -5.999995648757004 6.000000372821265 0  -4.999994528313017 6.00000037856373 0  -3.999994293920127 5.999999827356154 0  -2.999993966814066 5.999999405807727 0  -1.999993464023251 5.999999136988823 0  -0.9999930937095735 5.99999916804717 0  7.033840759882267e-06 5.999999022725638 0  1.000006991226589 5.99999839140408 0  2.000006992963861 5.999996992989068 0  3.000007329261321 5.999994703399198 0  4.000008206662929 5.99999196210997 0  5.00000977596692 5.999989597194587 0  6.000007912215573 5.999991698763682 0  7.000005619459781 5.999994226877584 0  8.000002925852979 5.999997041884311 0  9 6 0  -9 8 0  -7.999997197448947 8.000000436758336 0  -6.999994750942694 8.000000720266318 0  -5.999992934809504 8.000000655561923 0  -4.99999179987687 7.99999994652848 0  -3.999991844302326 7.99999852896581 0  -2.999990258111815 7.999997296547954 0  -1.999988903667668 7.99999755386441 0  -0.999988288008098 7.999998677108323 0  1.181433053745731e-05 7.999999163652533 0  1.000011625000846 7.9999991263826 0  2.000011193447629 7.999997425328973 0  3.000010430946463 7.99999457051174 0  4.000010449393976 7.999989579702481 0  5.00001295858668 7.999984259587219 0  6.000011887220815 7.999987131951007 0  7.000009024579845 7.999990969903153 0  8.000004852429228 7.999995359488894 0  9 8 0  -9 10 0  -7.999994561129098 10.00000130691618 0  -6.999990044858021 10.00000251985261 0  -5.999987496062694 10.00000351558193 0  -4.999988263411809 10.00000410068886 0  -3.999989201676642 9.999997285426286 0  -2.99998622059603 9.999992243185156 0  -1.999985102563703 9.999996663505884 0  -0.9999856710746715 9.999998136004479 0  1.490481470561966e-05 9.999998494981233 0  1.000016043850963 9.999998126549924 0  2.000018136654534 9.999996819216548 0  3.000019241187241 9.999997396064423 0  4.000018843644314 9.999986287513854 0  5.000023762983455 9.999972574385778 0  6.000023027170185 9.999978702942267 0  7.000017667604808 9.999985506501245 0  8.000009500008614 9.999992673472168 0  9 10 0  -9 12 0  -7.999988234502322 12.00000255297056 0  -6.999977468999808 12.00000518822974 0  -5.999968792499213 12.00000801811845 0  -4.999963484729778 12.00001123281187 0  -3.999964162128841 11.99999508817798 0  -2.999960544715332 11.99997880466181 0  -1.999950075251663 11.99998484897572 0  -0.9999428560033101 11.99999018203168 0  6.21051680752055e-05 11.99999498911342 0  1.000064953522962 11.99999956154463 0  2.000065222924432 12.00000426289028 0  3.000061595033603 12.00000967754788 0  4.000059487338882 11.99998306919251 0  5.000063032754769 11.99995605620824 0  6.000052661176055 11.99996757440048 0  7.000037542200182 11.9999785897542 0  8.000019476863127 11.9999893494305 0  9 12 0  -9 14 0  -7.999977908046909 14.00000346984739 0  -6.999956537315193 14.00000707805394 0  -5.999936614249583 14.00001098137793 0  -4.999918859378807 14.00001537459239 0  -3.999918616299403 13.99999129495266 0  -2.99991550750488 13.99996672234072 0  -1.999902047614026 13.99997587944004 0  -0.9998910086508273 13.99998433216233 0  0.0001177569247617513 13.99999242229422 0  1.000124179152314 14.00000048155149 0  2.000127898464927 14.00000885430609 0  3.000128225577404 14.00001790264269 0  4.000127234466169 13.99998078459936 0  5.000130286000373 13.99994347593404 0  6.000101282517895 13.99995845818242 0  7.00006920076217 13.99997269634186 0  8.00003509877418 13.99998646220379 0  9 14 0  -9 16 0  -7.999964696839328 16.00000383327361 0  -6.999929815068775 16.00000778738468 0  -5.999895763297981 16.00001198503048 0  -4.999862919380763 16.00001654951189 0  -3.999862249680201 15.99998792866343 0  -2.999860099927158 15.9999591110687 0  -1.999844337040072 15.99996972725532 0  -0.9998300681616297 15.99997993277218 0  0.00018278196727637 15.99998997935393 0  1.000194216624111 16.00000014804109 0  2.000204143375316 16.00001074430948 0  3.00021237569589 16.00002209749858 0  4.000212327018173 15.99997871994509 0  5.000214034096081 15.99993504328971 0  6.000162212786321 15.99995231942747 0  7.000108937411829 15.99996869288427 0  8.000054705843761 15.99998448770976 0  9 16 0  -9 18 0  -7.999949799906371 18.00000371334458 0  -6.999899772750186 18.00000752256402 0  -5.999850080640214 18.00001152131122 0  -4.999800863130043 18.00001579803745 0  -3.99979987588143 17.99998500749196 0  -2.999798283218385 17.99995396012325 0  -1.999780649463479 17.99996521729345 0  -0.999763452945621 17.99997616919391 0  0.0002534689957994735 17.99998704828734 0  1.000270286266364 17.99999810473519 0  2.000287167175967 18.00000960745031 0  3.000304284105005 18.00002184474903 0  4.000305152667994 17.99997689829721 0  5.000305696124465 17.99993170332599 0  6.000228953726374 17.9999497925526 0  7.000152494850592 17.99996700472601 0  8.000076207239069 17.99998364380057 0  9 18 0  -9 20 0  -7.999934210989602 20.00000320991134 0  -6.999868389714221 20.00000649961846 0  -5.999802498325447 20.00000994652008 0  -4.999736488245669 20.00001362297623 0  -3.999735265269305 19.99998239189371 0  -2.9997341863542 19.99995090016956 0  -1.999715212863687 19.99996192821364 0  -0.9996957397463955 19.99997269689454 0  0.0003245754359293607 19.9999834079769 0  1.000346102629732 19.99999427673018 0  2.000369248252036 20.00000553283503 0  3.000394469148988 20.00001742137028 0  4.000396178440902 19.99997541434007 0  5.000395617635491 19.99993315917465 0  6.000294553818033 19.99995077489262 0  7.000195362698574 19.99996760961861 0  8.000097383756096 19.99998393173143 0  8.999999999970978 19.99999999998952 0  -9 22 0  -7.999918750623221 22.00000238728008 0  -6.999837286139678 22.00000484786542 0  -5.999755389256203 22.00000745345808 0  -4.999672842555515 22.0000102724207 0  -3.999671423891666 21.99998008339954 0  -2.999670805614753 21.9999496336984 0  -1.999651774215329 21.99995967628615 0  -0.9996313937276339 21.99996945484245 0  0.0003908353063787479 21.99997913699087 0  1.000415447389503 21.99998889949094 0  2.000443031175503 21.99999892885688 0  3.00047425071361 22.00000942216679 0  4.000476627581907 21.99997426882798 0  5.000475125010373 21.99993886967896 0  6.000352655044141 21.99995488201866 0  7.000233376788347 21.99997026546957 0  8.000116176395675 21.99998523530124 0  9 22 0  -9 24 0  -7.99990414991579 24.00000127139741 0  -6.999807910724903 24.00000261603006 0  -5.999710877287208 24.00000410683315 0  -4.999612666493984 24.0000058157229 0  -3.999611052569073 23.99997806754745 0  -2.999610890388504 23.99995005807246 0  -1.999593731001186 23.9999584800517 0  -0.999574440456874 23.99996659812814 0  0.0004475650045360249 23.99997454444232 0  1.000472908074663 23.99998245478061 0  2.000502274737341 23.99999046926675 0  3.000536439783994 23.99999873285207 0  4.000539255323543 23.99997348727974 0  5.000537031582045 23.99994799903206 0  6.00039798188096 23.99996150533557 0  7.000263074344457 23.99997457616567 0  8.000130870040163 23.99998735952792 0  9 24 0  -9 26 0  -7.999891130888241 25.99999986252642 0  -6.99978168186416 25.99999979986973 0  -5.999671072883718 25.99999988774843 0  -4.999558731292539 26.00000020342293 0  -3.999556906805632 25.99997633818384 0  -2.999557216427552 25.99995221287875 0  -1.999544209747808 25.99995849909924 0  -0.9995283453359468 25.99996442805178 0  0.00049094644322876 25.99997009552247 0  1.000514277337918 25.99997559335026 0  2.000542328673596 25.99998101332125 0  3.000575874737876 25.99998644591524 0  4.000578863622054 25.99997308562046 0  5.000576174963291 25.9999594835592 0  6.000426732676548 25.99996987102586 0  7.00028195413788 25.99998003699662 0  8.00014022400739 25.99999005538421 0  9 26 0  -9 28 0  -7.999880430420522 27.9999981543342 0  -6.999760090726126 27.99999638148103 0  -5.999638209086775 27.99999475631735 0  -4.99951401047526 27.99999335789867 0  -3.999511964143923 27.99997489908409 0  -2.999512761637424 27.99995618277433 0  -1.999506120090655 27.99995994562537 0  -0.9994959592985857 27.9999633075508 0  0.000518171271657084 27.99996632387203 0  1.000536769994603 27.99996904312232 0  2.00056040640828 27.99997150715218 0  3.000589744022699 27.99997375110195 0  4.000592630250297 27.99997307203302 0  5.000589745124008 27.99997215068903 0  6.0004368214221 27.99997912306051 0  7.000288635814099 27.99998608835664 0  8.00
[...]
<PointData  Vectors="f_42"> 
<DataArray  type="Float64"  Name="f_42"  NumberOfComponents="3" format="ascii">0.0000000000000000e+00 0.0000000000000000e+00 0.0000000000000000e+00  0.0000000000000000e+00 0.0000000000000000e+00 0.0000000000000000e+00  0.0000000000000000e+00 0.0000000000000000e+00 0.0000000000000000e+00  0.0000000000000000e+00 0.0000000000000000e+00 0.0000000000000000e+00  0.0000000000000000e+00 0.0000000000000000e+00 0.0000000000000000e+00  0.0000000000000000e+00 0.0000000000000000e+00 0.0000000000000000e+00  0.0000000000000000e+00 0.0000000000000000e+00 0.0000000000000000e+00  0.0000000000000000e+00 0.0000000000000000e+00 0.0000000000000000e+00  0.0000000000000000e+00 0.0000000000000000e+00 0.0000000000000000e+00  0.0000000000000000e+00 0.0000000000000000e+00 0.0000000000000000e+00  0.0000000000000000e+00 0.0000000000000000e+00 0.0000000000000000e+00  0.0000000000000000e+00 0.0000000000000000e+00 0.0000000000000000e+00  0.0000000000000000e+00 0.0000000000000000e+00 0.0000000000000000e+00  0.0000000000000000e+00 0.0000000000000000e+00 0.0000000000000000e+00  0.0000000000000000e+00 0.0000000000000000e+00 0.0000000000000000e+00  0.0000000000000000e+00 0.0000000000000000e+00 0.0000000000000000e+00  0.0000000000000000e+00 0.0000000000000000e+00 0.0000000000000000e+00  0.0000000000000000e+00 0.0000000000000000e+00 0.0000000000000000e+00  0.0000000000000000e+00 0.0000000000000000e+00 0.0000000000000000e+00  0.0000000000000000e+00 0.0000000000000000e+00 0.0000000000000000e+00  3.3604283803061797e-07 5.0745127798466678e-08 0.0000000000000000e+00  6.2913582529368398e-07 1.0058496413424204e-07 0.0000000000000000e+00  8.2976924788251338e-07 1.4941871232265593e-07 0.0000000000000000e+00  8.6953399630570983e-07 1.9687427371676831e-07 0.0000000000000000e+00  7.5200179451248173e-07 8.3003909736501058e-08 0.0000000000000000e+00  7.1458667911320592e-07 1.4040164463947684e-08 0.0000000000000000e+00  7.1146095547471328e-07 -4.0458364837786578e-08 0.0000000000000000e+00  7.3427741449130910e-07 -1.0737819190604383e-07 0.0000000000000000e+00  8.0683334113768571e-07 -2.1496710031770127e-07 0.0000000000000000e+00  9.8769551556433974e-07 -4.0222244669515702e-07 0.0000000000000000e+00  1.3724500725651187e-06 -7.1078777975984675e-07 0.0000000000000000e+00  2.0809699990849402e-06 -1.1690188963375080e-06 0.0000000000000000e+00  3.2863868516385695e-06 -1.9414044190824851e-06 0.0000000000000000e+00  5.2042392036692408e-06 -3.1510364198235668e-06 0.0000000000000000e+00  3.5397887060784919e-06 -2.4880520202995557e-06 0.0000000000000000e+00  2.2319260126007641e-06 -1.7089475368682858e-06 0.0000000000000000e+00  1.0855944269524442e-06 -8.6839244091694336e-07 0.0000000000000000e+00  0.0000000000000000e+00 0.0000000000000000e+00 0.0000000000000000e+00  -4.9820587634006413e-12 0.0000000000000000e+00 0.0000000000000000e+00  8.4388492162206906e-07 1.0511141037447258e-07 0.0000000000000000e+00  1.6281100502859972e-06 2.0519431560045973e-07 0.0000000000000000e+00  2.3030139400764951e-06 3.0435030660578986e-07 0.0000000000000000e+00  2.8341717357687209e-06 4.2512146634457375e-07 0.0000000000000000e+00  2.8683172968449613e-06 9.5300693513934527e-08 0.0000000000000000e+00  2.9753869042261195e-06 -9.6113526376360625e-08 0.0000000000000000e+00  3.1063340519613915e-06 -2.2998314503798591e-07 0.0000000000000000e+00  3.2504216457043446e-06 -3.8585379552307554e-07 0.0000000000000000e+00  3.4044131734983216e-06 -6.5224054513081523e-07 0.0000000000000000e+00  3.6298776396442118e-06 -1.2044686009440537e-06 0.0000000000000000e+00  4.0549018666705643e-06 -2.1169829359067325e-06 0.0000000000000000e+00  4.8349343545809824e-06 -3.4296994731506114e-06 0.0000000000000000e+00  6.0340621784137444e-06 -5.1796847491771783e-06 0.0000000000000000e+00  7.4523141188285579e-06 -7.2404243046989786e-06 0.0000000000000000e+00  5.6532138108446454e-06 -5.4405755654948996e-06 0.0000000000000000e+00  3.8177182411633608e-06 -3.6636897031482576e-06 0.0000000000000000e+00  1.9282330909788579e-06 -1.8481279486732935e-06 0.0000000000000000e+00  0.0000000000000000e+00 0.0000000000000000e+00 0.0000000000000000e+00  0.0000000000000000e+00 0.0000000000000000e+00 0.0000000000000000e+00  1.5903847601407733e-06 1.7959161679969759e-07 0.0000000000000000e+00  3.0643683656904455e-06 3.1351131052785293e-07 0.0000000000000000e+00  4.3512429882198961e-06 3.7282126998698992e-07 0.0000000000000000e+00  5.4716869827720393e-06 3.7856373509934629e-07 0.0000000000000000e+00  5.7060798745288339e-06 -1.7264384034892553e-07 0.0000000000000000e+00  6.0331859349125053e-06 -5.9419226971249508e-07 0.0000000000000000e+00  6.5359767489466463e-06 -8.6301118655683264e-07 0.0000000000000000e+00  6.9062904263838152e-06 -8.3195282857353863e-07 0.0000000000000000e+00  7.0338407598822674e-06 -9.7727436660990154e-07 0.0000000000000000e+00  6.9912265879956568e-06 -1.6085959161374628e-06 0.0000000000000000e+00  6.9929638631289748e-06 -3.0070109356708274e-06 0.0000000000000000e+00  7.3292613201376748e-06 -5.2966007970849206e-06 0.0000000000000000e+00  8.2066629269428045e-06 -8.0378900289370941e-06 0.0000000000000000e+00  9.7759669225836677e-06 -1.0402805411868720e-05 0.0000000000000000e+00  7.9122155645711318e-06 -8.3012363151809440e-06 0.0000000000000000e+00  5.6194597786902249e-06 -5.7731224181705819e-06 0.0000000000000000e+00  2.9258529767738496e-06 -2.9581156897143962e-06 0.0000000000000000e+00  0.0000000000000000e+00 0.0000000000000000e+00 0.0000000000000000e+00  0.0000000000000000e+00 0.0000000000000000e+00 0.0000000000000000e+00  2.8025510410019438e-06 4.3675833877355078e-07 0.0000000000000000e+00  5.2490573052697265e-06 7.2026631429950503e-07 0.0000000000000000e+00  7.0651904950929166e-06 6.5556191832251568e-07 0.0000000000000000e+00  8.2001231299247584e-06 -5.3471507972544254e-08 0.0000000000000000e+00  8.1556976752607547e-06 -1.4710341831145248e-06 0.0000000000000000e+00  9.7418881847032281e-06 -2.7034520488019248e-06 0.0000000000000000e+00  1.1096332331701931e-05 -2.4461355896904390e-06 0.0000000000000000e+00  1.1711991901383732e-05 -1.3228916772519231e-06 0.0000000000000000e+00  1.1814330537457313e-05 -8.3634747216713419e-07 0.0000000000000000e+00  1.1625000846780118e-05 -8.7361741461619408e-07 0.0000000000000000e+00  1.1193447629067571e-05 -2.5746710405794130e-06 0.0000000000000000e+00  1.0430946460693959e-05 -5.4294882540151003e-06 0.0000000000000000e+00  1.0449393975160239e-05 -1.0420297517891927e-05 0.0000000000000000e+00  1.2958586673265873e-05 -1.5740412789053852e-05 0.0000000000000000e+00  1.1887220814736660e-05 -1.2868048993306576e-05 0.0000000000000000e+00  9.0245798464928054e-06 -9.0300968562518328e-06 0.0000000000000000e+00  4.8524292223030420e-06 -4.6405111063429994e-06 0.0000000000000000e+00  0.0000000000000000e+00 0.0000000000000000e+00 0.0000000000000000e+00  0.0000000000000000e+00 0.0000000000000000e+00 0.0000000000000000e+00  5.4388709020549447e-06 1.3069161876889771e-06 0.0000000000000000e+00  9.9551419816835043e-06 2.5198526116555505e-06 0.0000000000000000e+00  1.2503937304432113e-05 3.5155819318754641e-06 0.0000000000000000e+00  1.1736588185700152e-05 4.1006888645314554e-06 0.0000000000000000e+00  1.0798323361771107e-05 -2.7145737132180916e-06 0.0000000000000000e+00  1.3779403968404488e-05 -7.7568148380534747e-06 0.0000000000000000e+00  1.4897436293342164e-05 -3.3364941076448208e-06 0.0000000000000000e+00  1.4328925328249900e-05 -1.8639955302816181e-06 0.0000000000000000e+00  1.4904814705619658e-05 -1.5050187759631347e-06 0.0000000000000000e+00  1.6043850965555249e-05 -1.8734500732340983e-06 0.0000000000000000e+00  1.8136654536296061e-05 -3.1807834583146770e-06 0.0000000000000000e+00  1.9241187238963159e-05 -2.6039355824567162e-06 0.0000000000000000e+00  1.8843644316943717e-05 -1.3712486146525044e-05 0.0000000000000000e+00  2.3762983460701206e-05 -2.7425614229492439e-05 0.0000000000000000e+00  2.3027170192815439e-05 -2.1297057734067262e-05 0.0000000000000000e+00  1.7667604807849651e-05 -1.4493498756881180e-05 0.0000000000000000e+00  9.5000086070561033e-06 -7.3265278299182923e-06 0.0000000000000000e+00  0.0000000000000000e+00 0.0000000000000000e+00 0.0000000000000000e+00  0.0000000000000000e+00 0.0000000000000000e+00 0.0000000000000000e+00  1.1765497679588872e-05 2.5529705590406707e-06 0.0000000000000000e+00  2.2531000193408391e-05 5.1882297337360072e-06 0.0000000000000000e+00  3.1207500783935914e-05 8.0181184695998699e-06 0.0000000000000000e+00  3.6515270227489906e-05 1.1232811868072753e-05 0.0000000000000000e+00  3.5837871157967462e-05 -4.9118220165387057e-06 0.0000000000000000e+00  3.9455284667106952e-05 -2.1195338180533449e-05 0.0000000000000000e+00  4.9924748337141635e-05 -1.5151024276901174e-05 0.0000000000000000e+00  5.7143996690963491e-05 -9.8179683207195190e-06 0.0000000000000000e+00  6.2105168075205503e-05 -5.0108865747019281e-06 0.0000000000000000e+00  6.4953522960251316e-05 -4.3845537211888660e-07 0.0000000000000000e+00  6.5222924430215041e-05 4.2628902816476440e-06 0.0000000000000000e+00  6.1595033602744619e-05 9.6775478663153748e-06 0.0000000000000000e+00  5.9487338885364657e-05 -1.6930807480197692e-05 0.0000000000000000e+00  6.3032754762063235e-05 -4.3943791749817342e-05 0.0000000000000000e+00  5.2661176054662713e-05 -3.2425599515491940e-05 0.0000000000000000e+00  3.7542200189248188e-05 -2.1410245797156093e-05 0.0000000000000000e+00  1.9476863120283051e-05 -1.0650569493224691e-05 0.0000000000000000e+00  0.0000000000000000e+00 0.0000000000000000e+00 0.0000000000000000e+00  0.0000000000000000e+00 0.0000000000000000e+00 0.0000000000000000e+00  2.2091953076747378e-05 3.4698473895269240e-06 0.0000000000000000e+00  4.3462684803867148e-05 7.0780539371257642e-06 0.0000000000000000e+00  6.3385750414132001e-05 1.0981377926149985e-05 0.0000000000000000e+00  8.1140621187448064e-05 1.5374592388508363e-05 0.0000000000000000e+00  8.1383700594950912e-05 -8.7050473303570786e-06 0.0000000000000000e+00  8.4492495121438657e-05 -3.3277659286678873e-05 0.0000000000000000e+00  9.7952385975434665e-05 -2.4120559972540335e-05 0.0000000000000000e+00  1.0899134917435703e-04 -1.5667837674803164e-05 0.0000000000000000e+00  1.1775692476175132e-04 -7.5777057889958818e-06 0.0000000000000000e+00  1.2417915231260803e-04 4.8155150097797027e-07 0.0000000000000000e+00  1.2789846493127310e-04 8.8543060933215321e-06 0.0000000000000000e+00  1.2822557740500387e-04 1.7902642682113205e-05 0.0000000000000000e+00  1.2723446616213870e-04 -1.9215400647379481e-05 0.0000000000000000e+00  1.3028600037651562e-04 -5.6524065963104895e-05 0.0000000000000000e+00  1.0128251789374685e-04 -4.1541817595581001e-05 0.0000000000000000e+00  6.9200762170390387e-05 -2.7303658155337446e-05 0.0000000000000000e+00  3.5098774181323224e-05 -1.3537796213599819e-05 0.0000000000000000e+00  0.0000000000000000e+00 0.0000000000000000e+00 0.0000000000000000e+00  0.0000000000000000e+00 0.0000000000000000e+00 0.0000000000000000e+00  3.5303160687581748e-05 3.8332736033686739e-06 0.0000000000000000e+00  7.0184931223331008e-05 7.7873846866780947e-06 0.0000000000000000e+00  1.0423670202062923e-04 1.1985030487867745e-05 0.0000000000000000e+00  1.3708061923670316e-04 1.6549511884543715e-05 0.0000000000000000e+00  1.3775031980010454e-04 -1.2071336558855714e-05 0.0000000000000000e+00  1.3990007284217301e-04 -4.0888931295736504e-05 0.0000000000000000e+00  1.5566295992691014e-04 -3.0272744687319409e-05 0.0000000000000000e+00  1.6993183836961747e-04 -2.0067227825318736e-05 0.0000000000000000e+00  1.8278196727636997e-04 -1.0020646068837754e-05 0.0000000000000000e+00  1.9421662410993397e-04 1.4804108743127759e-07 0.0000000000000000e+00  2.0414337531324072e-04 1.0744309474392860e-05 0.0000000000000000e+00  2.1237569589482923e-04 2.2097498569118199e-05 0.0000000000000000e+00  2.1232701817207653e-04 -2.1280054883591256e-05 0.0000000000000000e+00  2.1403409608596841e-04 -6.4956710294408393e-05 0.0000000000000000e+00  1.6221278632644874e-04 -4.7680572525913943e-05 0.0000000000000000e+00  1.0893741182552612e-04 -3.1307115735477609e-05 0.0000000000000000e+00  5.4705843764329441e-05 -1.5512290251832013e-05 0.0000000000000000e+00  0.0000000000000000e+00 0.0000000000000000e+00 0.0000000000000000e+00  0.0000000000000000e+00 0.0000000000000000e+00 0.0000000000000000e+00  5.0200093643083549e-05 3.7133445932418507e-06 0.0000000000000000e+00  1.0022724981381115e-04 7.5225640212262489e-06 0.0000000000000000e+00  1.4991935978703254e-04 1.1521311223581358e-05 0.0000000000000000e+00  1.9913686995580397e-04 1.5798037470192144e-05 0.0000000000000000e+00  2.0012411857109054e-04 -1.4992508059746742e-05 0.0000000000000000e+00  2.0171678161444976e-04 -4.6039876727621956e-05 0.0000000000000000e+00  2.1935053652274539e-04 -3.4782706546722374e-05 0.0000000000000000e+00  2.3654705437641820e-04 -2.3830806102977989e-05 0.0000000000000000e+00  2.5346899579947350e-04 -1.2951712648082306e-05 0.0000000000000000e+00  2.7028626636539530e-04 -1.8952648066827832e-06 0.0000000000000000e+00  2.8716717596354523e-04 9.6074502954281943e-06 0.0000000000000000e+00  3.0428410500618906e-04 2.1844749010527446e-05 0.0000000000000000e+00  3.0515266799580130e-04 -2.3101702796112181e-05 0.0000000000000000e+00  3.0569612446614664e-04 -6.8296674027390337e-05 0.0000000000000000e+00  2.2895372637952180e-04 -5.0207447411616587e-05 0.0000000000000000e+00  1.5249485059881215e-04 -3.2995273983715881e-05 0.0000000000000000e+00  7.6207239071242347e-05 -1.6356199419421352e-05 0.0000000000000000e+00  0.0000000000000000e+00 0.0000000000000000e+00 0.0000000000000000e+00  0.0000000000000000e+00 0.0000000000000000e+00 0.0000000000000000e+00  6.5789010408473796e-05 3.2099113376081857e-06 0.0000000000000000e+00  1.3161028577991592e-04 6.4996184727113227e-06 0.0000000000000000e+00  1.9750167454952558e-04 9.9465201016307587e-06 0.0000000000000000e+00  2.6351175432788365e-04 1.3622976233155865e-05 0.0000000000000000e+00  2.6473473069636765e-04 -1.7608106286497959e-05 0.0000000000000000e+00  2.6581364579553965e-04 -4.9099830446686615e-05 0.0000000000000000e+00  2.8478713631320052e-04 -3.8071786360938559e-05 0.0000000000000000e+00  3.0426025360409008e-04 -2.7303105465068562e-05 0.0000000000000000e+00  3.2457543592936066e-04 -1.6592023076964733e-05 0.0000000000000000e+00  3.4610262973291868e-04 -5.7232698119999628e-06 0.0000000000000000e+00  3.6924825204056461e-04 5.5328350291212533e-06 0.0000000000000000e+00  3.9446914898967812e-04 1.7421370252886952e-05 0.0000000000000000e+00  3.9617844090599673e-04 -2.4585659948049052e-05 0.0000000000000000e+00  3.9561763549039502e-04 -6.6840825336196634e-05 0.0000000000000000e+00  2.9455381803273099e-04 -4.9225107399865935e-05 0.0000000000000000e+00  1.9536269857258311e-04 -3.2390381389171539e-05 0.0000000000000000e+00  9.7383756079932833e-05 -1.6068268595677308e-05 0.0000000000000000e+00  -2.9020465711628735e-11 -1.0466294578387096e-11 0.0000000000000000e+00  0.0000000000000000e+00 0.0000000000000000e+00 0.0000000000000000e+00  8.1249376782947921e-05 2.3872800783006467e-06 0.0000000000000000e+00  1.6271386031753671e-04 4.8478654206044886e-06 0.0000000000000000e+00  2.4461074379483836e-04 7.4534580829251379e-06 0.0000000000000000e+00  3.2715744448566915e-04 1.0272420705358113e-05 0.0000000000000000e+00  3.2857610833185414e-04 -1.9916600442945185e-05 0.0000000000000000e+00  3.2919438524528288e-04 -5.0366301598029379e-05 0.0000000000000000e+00  3.4822578467513235e-04 -4.0323713823685762e-05 0.0000000000000000e+00  3.6860627236511495e-04 -3.0545157542206175e-05 0.0000000000000000e+00  3.9083530637874791e-04 -2.0863009141152702e-05 0.0000000000000000e+00  4.1544738950320182e-04 -1.1100509076828258e-05 0.0000000000000000e+00  4.4303117550216503e-04 -1.0711431421014337e-06 0.0000000000000000e+00  4.7425071360925302e-04 9.4221667743570660e-06 0.0000000000000000e+00  4.7662758191269227e-04 -2.5731172002478966e-05 0.0000000000000000e+00  4.7512501037211551e-04 -6.1130321035014144e-05 0.0000000000000000e+00  3.5265504413745324e-04 -4.5117981332988545e-05 0.0000000000000000e+00  2.3337678834176360e-04 -2.9734530406104864e-05 0.0000000000000000e+00  1.1617639567180154e-04 -1.4764698741667626e-05 0.0000000000000000e+00  0.0000000000000000e+00 0.0000000000000000e+00 0.0000000000000000e+00  0.0000000000000000e+00 0.0000000000000000e+00 0.0000000000000000e+00  9.5850084223705510e-05 1.2713974033163071e-06 0.0000000000000000e+00  1.9208927509494980e-04 2.6160300764404523e-06 0.0000000000000000e+00  2.8912271278528127e-04 4.1068331524741531e-06 0.0000000000000000e+00  3.8733350602604714e-04 5.8157228816937195e-06 0.0000000000000000e+00  3.8894743092633195e-04 -2.1932452538546064e-05 0.0000000000000000e+00  3.8910961149553016e-04 -4.9941927552421211e-05 0.0000000000000000e+00  4.0626899881561035e-04 -4.1519948315510923e-05 0.0000000000000000e+00  4.2555954312536982e-04 -3.3401871868162208e-05 0.0000000000000000e+00  4.4756500453602490e-04 -2.5455557687999570e-05 0.0000000000000000e+00  4.7290807466163383e-04 -1.7545219396595569e-05 0.0000000000000000e+00  5.0227473734561830e-04 -9.5307332288211941e-06 0.0000000000000000e+00  5.3643978399242566e-04 -1.2671479211212339e-06 0.0000000000000000e+00  5.3925532353388316e-04 -2.6512720256620276e-05 0.0000000000000000e+00  5.3703158204398624e-04 -5.2000967958877307e-05 0.0000000000000000e+00  3.9798188096112908e-04 -3.8494664411389826e-05 0.0000000000000000e+00  2.6307434445086662e-04 -2.5423834337010495e-05 0.0000000000000000e+00  1.3087004016764436e-04 -1.2640472074556545e-05 0.0000000000000000e+00  0.0000000000000000e+00 0.0000000000000000e+00 0.0000000000000000e+00  0.0000000000000000e+00 0.0000000000000000e+00 0.0000000000000000e+00  1.0886911174934099e-04 -1.3747356533205903e-07 0.0000000000000000e+00  2.1831813583615293e-04 -2.0013027701399767e-07 0.0000000000000000e+00  3.2892711628449279e-04 -1.1225156589096529e-07 0.0000000000000000e+00  4.4126870746731718e-04 2.0342293502689617e-07 0.0000000000000000e+00  4.4309319436489623e-04 -2.3661816157417416e-05 0.0000000000000000e+00  4.4278357245072114e-04 -4.7787121239646084e-05 0.0000000000000000e+00  4.5579025218993628e-04 -4.1500900759542163e-05 0.0000000000000000e+00  4.7165466405394650e-04 -3.5571948202024136e-05 0.0000000000000000e+00  4.9094644322876003e-04 -2.9904477515625535e-05 0.0000000000000000e+00  5.1427733791834299e-04 -2.4406649728065149e-05 0.0000000000000000e+00  5.4232867359642724e-04 -1.8986678779700772e-05 0.0000000000000000e+00  5.7587473787536333e-04 -1.3554084758282471e-05 0.0000000000000000e+00  5.7886362205694750e-04 -2.6914379525783258e-05 0.0000000000000000e+00  5.7617496328490154e-04 -4.0516440790997523e-05 0.0000000000000000e+00  4.2673267654436142e-04 -3.0128974153323851e-05 0.0000000000000000e+00  2.8195413787939839e-04 -1.9963003369837451e-05 0.0000000000000000e+00  1.4022400739589468e-04 -9.9446157664613342e-06 0.0000000000000000e+00  0.0000000000000000e+00 0.0000000000000000e+00 0.0000000000000000e+00  0.0000000000000000e+00 0.0000000000000000e+00 0.0000000000000000e+00  1.1956957947974900e-04 -1.8456657884861562e-06 0.0000000000000000e+00  2.3990927387269992e-04 -3.6185189633644000e-06 0.0000000000000000e+00  3.6179091322367069e-04 -5.2436826476236184e-06 0.0000000000000000e+00  4.8598952474141095e-04 -6.6421013460386017e-06 0.0000000000000000e+00  4.8803585607222423e-04 -2.5100915918719917e-05 0.0000000000000000e+00  4.8723836257681490e-04 -4.3817225697121078e-05 0.0000000000000000e+00  4.9387990934382899e-04 -4.0054374665537750e-05 0.0000000000000000e+00  5.0404070141395760e-04 -3.6692449207398093e-05 0.0000000000000000e+00  5.1817127165708398e-04 -3.3676127994772354e-05 0.0000000000000000e+00  5.3676999460263439e-04 -3.0956877690531466e-05 0.0000000000000000e+00  5.6040640828113010e-04 -2.8492847812850372e-05 0.0000000000000000e+00  5.8974402270270832e-04 -2.6248898051185449e-05 0.0000000000000000e+00  5.9263025029451300e-04 -2.6927966975562869e-05 0.0000000000000000e+00  5.8974512400500204e-04 -2.7849310978070921e-05 0.0000000000000000e+00  4.3682142210012671e-04 -2.0876939478650597e-05 0