<?xml version="1.0"?>
<VTKFile type="UnstructuredGrid"  version="0.1"  >
<UnstructuredGrid>
<Piece  NumberOfPoints="589" NumberOfCells="1080">
<Points>
<DataArray  type="Float64"  NumberOfComponents="3"  format="ascii">-9 0 0  -8 0 0  -7 0 0  -6 0 0  -5 0 0  -4 0 0  -3 0 0  -2 0 0  -1 0 0  0 0 0  1 0 0  2 0 0  3 0 0  4 0 0  5 0 0  6 0 0  7 0 0  8 0 0  9 0 0  -9 2 0  -8.000006426365292 1.999990383280007 0  -7.000013464397077 1.999981954705651 0  -6.000022571649305 1.999975679549815 0  -5.000037096444343 1.999971983238648 0  -4.000021969816653 1.999979074954409 0  -3.000006438635001 1.999985808926192 0  -1.999998873713057 1.999992134323215 0  -0.999997627680364 1.999997138309485 0  -3.341869833103931e-07 1.999999348804468 0  0.9999966569376002 1.999997870713572 0  1.999996884052522 1.999993077968558 0  3.000002714078518 1.999987218315036 0  4.000014855548722 1.99998101117811 0  5.000032419649075 1.999978672509938 0  6.000019491355568 1.999979443453253 0  7.00001157483707 1.999984096768392 0  8.000005526554718 1.99999137858223 0  9 2 0  -9 4 0  -8.000010405939223 3.999976014502995 0  -7.00001865193534 3.999955296129545 0  -6.000023473071065 3.999941043934605 0  -5.000025124857684 3.999936305228514 0  -4.000003107433748 3.999939688873146 0  -2.999988350487166 3.999958688617839 0  -1.999984513327093 3.999983394711745 0  -0.9999901517886891 4.00000328060267 0  -9.482924493959389e-07 4.000011337985544 0  0.9999880145539402 4.000005193735766 0  1.999981555830306 3.999988484654659 0  2.999984492054677 3.999965882345536 0  3.999998288693845 3.999943239692302 0  5.000019450402879 3.999935953364984 0  6.000018935513912 3.999943357753053 0  7.00001567660486 3.999957680088425 0  8.000008965991524 3.999977399316936 0  9 4 0  -9 6 0  -8.000023024615444 5.999948579810622 0  -7.000037538855915 5.999902775224984 0  -6.000037051891758 5.99986835666129 0  -5.000019708763761 5.999850848025547 0  -3.99997673933868 5.999879078267991 0  -2.999957229399527 5.999937887760217 0  -1.99996503256054 5.999999500614211 0  -0.9999843577733035 6.000033733394044 0  -3.878936498947957e-06 6.000040644655791 0  0.9999785990226586 6.000029669423242 0  1.999965249418905 5.999999236923188 0  2.999960208556884 5.999947812017078 0  3.999970250568717 5.99989455919967 0  5.000006679796955 5.999868367289843 0  6.00002935570162 5.99987960245028 0  7.000033584496784 5.999909678334068 0  8.000021425935799 5.999951896600444 0  9 6 0  -9 8 0  -8.000069677192641 7.999898694607938 0  -7.000116426044246 7.999804723033188 0  -6.000118052718626 7.999728042299596 0  -5.000055606453791 7.999685053978297 0  -3.999972342957908 7.999815087766232 0  -2.999987915609166 7.999967825203487 0  -2.000019379868197 8.00004214717023 0  -1.000022188032838 8.000050469334603 0  -3.670818580521515e-06 8.000052869630045 0  1.00001021323593 8.000060338168158 0  2.000004540457597 8.00002956385158 0  2.999968504585253 7.99997718251344 0  3.999956292771339 7.999847102219365 0  5.000037656875966 7.999700285281531 0  6.000113555208848 7.999740501751849 0  7.000117031404157 7.999813120393899 0  8.000070946493448 7.999902863406625 0  9 8 0  -9 10 0  -8.000207982824731 9.999819522682103 0  -7.000375737624096 9.999637582517684 0  -6.000455283999845 9.999453082262873 0  -5.000379825372823 9.999265789962337 0  -4.000247625928207 9.999686072073471 0  -3.000269695525953 10.00004735419938 0  -2.00021642516112 9.999984655860874 0  -1.000100439620487 9.999964539110259 0  -1.516152512078559e-05 9.999959634429539 0  1.000069341220528 9.999960058369886 0  2.000181754690874 9.999957976543021 0  3.000280749380958 10.00008741452226 0  4.00026835528682 9.999747253523751 0  5.000417653071788 9.999298284830754 0  6.000487315171153 9.999471890978398 0  7.000398642066964 9.999648119983039 0  8.00021986074464 9.999824290688897 0  9 10 0  -9 12 0  -8.000506920546099 11.99974630607708 0  -7.000987425735016 11.99948085781282 0  -6.001411651684076 11.99918959622787 0  -5.001742560872352 11.99885291112234 0  -4.001674756394104 11.99962013762764 0  -3.001736284258291 12.00037976254634 0  -2.001195190594535 12.00028742666869 0  -1.000592525841124 12.0002371391762 0  3.358366231014744e-05 12.00022678800723 0  1.000666153612048 12.00025791418799 0  2.001290915992183 12.00033967971135 0  3.001879699671337 12.00049505983754 0  4.001814987528492 11.99967837035119 0  5.001857955924661 11.99885495996444 0  6.001493786364515 11.9991930154465 0  7.001040370880428 11.99948349190767 0  8.000532900424606 11.99974764969759 0  9 12 0  -9 14 0  -8.000910940738706 13.99972022462896 0  -7.001823303835325 13.99942759028423 0  -6.002739700532345 13.99910810210616 0  -5.003665830327751 13.99874553741366 0  -4.003675173128582 13.9996436070865 0  -3.003681126517878 14.000553034882 0  -2.002421331779073 14.00042222034038 0  -1.001178872756795 14.00035018532317 0  5.661667218936406e-05 14.00032820756426 0  1.001295034991271 14.00035342726445 0  2.002545590738983 14.0004272330826 0  3.003815537444923 14.00055364997542 0  4.00382556947115 13.99964675024071 0  5.003831053046305 13.99874550247545 0  6.002855859689283 13.99910490770626 0  7.001897511084497 13.99942440846477 0  8.000947156365244 13.99971838636382 0  9 14 0  -9 16 0  -8.001308480420644 15.99974565773993 0  -7.002641744689143 15.99948190441808 0  -6.004026720103558 15.99919916407909 0  -5.005494730244476 15.99888768539874 0  -4.005546746462663 15.99965568135581 0  -3.005497893950122 16.00041962912746 0  -2.003580173286091 16.00032252929783 0  -1.001738239988991 16.00026351241437 0  6.796208931196686e-05 16.00024129738688 0  1.001876308490186 16.00025504782151 0  2.003724696473027 16.00030479329489 0  3.005653450127983 16.00039123800332 0  4.005708673197946 15.99962352340799 0  5.005660438792497 15.99885521964445 0  6.004148217495461 15.999176725424 0  7.002721260752161 15.99946763162241 0  8.001347775406538 15.99973869324269 0  9 16 0  -9 18 0  -8.001606049596194 17.99980875593394 0  -7.003251844623603 17.99961224971368 0  -6.004979196702061 17.99940531294725 0  -5.006834037301893 17.99918298930146 0  -4.006912798163459 17.99965879660106 0  -3.006837182699221 18.00013399332775 0  -2.004438480755356 18.00007102978989 0  -1.002155910253431 18.00003017218308 0  7.067704061008756e-05 18.00001105890388 0  1.002298518393875 18.00001320959595 0  2.004584770275065 18.00003605566884 0  3.006989301663888 18.00007882754807 0  4.007069505696994 17.99960611906943 0  5.006993135660649 17.99913480457868 0  6.005096847420099 17.99937113875585 0  7.003329449513171 17.99959035435062 0  8.001644598609525 17.99979806366903 0  9 18 0  -9 20 0  -8.001743862497703 19.9998928899982 0  -7.003534184536649 19.9997843376265 0  -6.005419201605713 19.99967305525739 0  -5.007450702432458 19.99955806080392 0  -4.007540695479711 19.99965917886757 0  -3.007452093646028 19.99975963204772 0  -2.004835213406038 19.99973149120934 0  -1.002351053157969 19.99971025139051 0  6.831245221333002e-05 19.99969615980097 0  1.002488348340926 19.99968897184387 0  2.004974484416595 19.99968796818998 0  3.007594550052619 19.99969191194391 0  4.007684859167256 19.9995974402683 0  5.007595753266122 19.99950393419311 0  6.005527169107299 19.9996340822866 0  7.0036057613102 19.99975912707155 0  8.001779528296581 19.99988051571442 0  8.999999999994515 19.99999999999313 0  -9 22 0  -8.001695121053981 21.99998277888259 0  -7.00343622071564 21.99996734228309 0  -6.005270722045327 21.99995564901334 0  -5.007248926605569 21.9999500100426 0  -4.007337104656074 21.99965588233858 0  -3.007249794329883 21.99936102382883 0  -2.00470405631262 21.99936447787666 0  -1.002288428989129 21.99936187853034 0  6.325927828893373e-05 21.99935378671922 0  1.002415170941082 21.99934012644566 0  2.004831444277788 21.99932019675077 0  3.007378180120735 21.99929265983587 0  4.007465034017955 21.99959466249537 0  5.007376241570804 21.99989723151626 0  6.005366142704428 21.9999174309966 0  7.003499787901719 21.9999425098441 0  8.001726885660267 21.99997055635928 0  9 22 0  -9 24 0  -8.001461729615638 24.00006553027917 0  -7.002963093493398 24.00013537284858 0  -6.004544840429341 24.00021401954456 0  -5.006249881857165 24.00030633150758 0  -4.006325944393641 23.99964920837633 0  -3.006251137369473 23.99899143638856 0  -2.004055358081954 23.9990215635266 0  -1.00197138825108 23.99903536709899 0  5.73800188189835e-05 23.9990335775721 0  1.002086028170191 23.99901624016978 0  2.004169618224139 23.99898271828562 0  3.006364701188674 23.99893168857589 0  4.006437313370594 23.99959631138604 0  5.006359552907327 24.00026127495915 0  6.004627601311394 24.00018124591418 0  7.003018493993932 24.00011400905097 0  8.001489490890238 24.00005499420885 0  9 24 0  -9 26 0  -8.00106896200316 26.00013104757287 0  -7.002166784475577 26.00026819575803 0  -6.003323110630553 26.00041772728293 0  -5.004569017230993 26.00058630037393 0  -4.004625125147635 25.99963968483409 0  -3.004571290114907 25.9986925725162 0  -2.00296221575879 25.9987436800736 0  -1.001434807601472 25.9987709662231 0  5.210010829651536e-05 25.99877529427329 0  1.001538633384926 25.99875681847096 0  2.003064898876914 25.99871498491093 0  3.004672004995067 25.99864852894845 0  4.004722396986619 25.9996009942025 0  5.004663808582606 26.00055362417262 0  6.00339515554055 26.00039389364344 0  7.002215251087723 26.00025262736867 0  8.001093319256611 26.00012335941818 0  9 26 0  -9 28 0  -8.000559781166038 28.00017217965533 0  -7.0011346895183 28.00035149509031 0  -6.00174029174363 28.00054526671793 0  -5.002392850179195 28.00076118965733 0  -4.002423659220736 27.99962823429471 0  -3.002396390017448 27.99849502420233 0  -2.001545144507038 27.99856080705491 0  -1.00073746379805 27.99859811786042 0  4.84401708288923e-05 27.99860794045415 0  1.000833804219175 27.99859053461654 0  2.00163984325077 27.99854543635029 0  3.00248827968379 27.99847145659045 0  4.002511354404753 27.99960769100536 0  5.002477605077146 28.00074400378431 0  6.001805105734797 28.00053270532894 0  7.001178477733854 28.00034327652363 0  8.000581843505721 28.0
[...]
<PointData  Vectors="f_42"> 
<DataArray  type="Float64"  Name="f_42"  NumberOfComponents="3" format="ascii">0.0000000000000000e+00 0.0000000000000000e+00 0.0000000000000000e+00  0.0000000000000000e+00 0.0000000000000000e+00 0.0000000000000000e+00  0.0000000000000000e+00 0.0000000000000000e+00 0.0000000000000000e+00  0.0000000000000000e+00 0.0000000000000000e+00 0.0000000000000000e+00  0.0000000000000000e+00 0.0000000000000000e+00 0.0000000000000000e+00  0.0000000000000000e+00 0.0000000000000000e+00 0.0000000000000000e+00  0.0000000000000000e+00 0.0000000000000000e+00 0.0000000000000000e+00  0.0000000000000000e+00 0.0000000000000000e+00 0.0000000000000000e+00  0.0000000000000000e+00 0.0000000000000000e+00 0.0000000000000000e+00  0.0000000000000000e+00 0.0000000000000000e+00 0.0000000000000000e+00  0.0000000000000000e+00 0.0000000000000000e+00 0.0000000000000000e+00  0.0000000000000000e+00 0.0000000000000000e+00 0.0000000000000000e+00  0.0000000000000000e+00 0.0000000000000000e+00 0.0000000000000000e+00  0.0000000000000000e+00 0.0000000000000000e+00 0.0000000000000000e+00  0.0000000000000000e+00 0.0000000000000000e+00 0.0000000000000000e+00  0.0000000000000000e+00 0.0000000000000000e+00 0.0000000000000000e+00  0.0000000000000000e+00 0.0000000000000000e+00 0.0000000000000000e+00  0.0000000000000000e+00 0.0000000000000000e+00 0.0000000000000000e+00  0.0000000000000000e+00 0.0000000000000000e+00 0.0000000000000000e+00  0.0000000000000000e+00 0.0000000000000000e+00 0.0000000000000000e+00  -6.4263652988430520e-06 -9.6167199925251345e-06 0.0000000000000000e+00  -1.3464397075906195e-05 -1.8045294348660657e-05 0.0000000000000000e+00  -2.2571649303457668e-05 -2.4320450184521593e-05 0.0000000000000000e+00  -3.7096444345417359e-05 -2.8016761353302253e-05 0.0000000000000000e+00  -2.1969816654118308e-05 -2.0925045591493909e-05 0.0000000000000000e+00  -6.4386350039504376e-06 -1.4191073807573553e-05 0.0000000000000000e+00  1.1262869441062495e-06 -7.8656767854531939e-06 0.0000000000000000e+00  2.3723196356745176e-06 -2.8616905157468739e-06 0.0000000000000000e+00  -3.3418698331039307e-07 -6.5119553253586195e-07 0.0000000000000000e+00  -3.3430623991606490e-06 -2.1292864276638427e-06 0.0000000000000000e+00  -3.1159474797614213e-06 -6.9220314413115099e-06 0.0000000000000000e+00  2.7140785194842848e-06 -1.2781684965661231e-05 0.0000000000000000e+00  1.4855548722699480e-05 -1.8988821890791141e-05 0.0000000000000000e+00  3.2419649071851350e-05 -2.1327490061814338e-05 0.0000000000000000e+00  1.9491355564445597e-05 -2.0556546747292366e-05 0.0000000000000000e+00  1.1574837071179212e-05 -1.5903231608298597e-05 0.0000000000000000e+00  5.5265547118090150e-06 -8.6214177713575194e-06 0.0000000000000000e+00  0.0000000000000000e+00 0.0000000000000000e+00 0.0000000000000000e+00  0.0000000000000000e+00 0.0000000000000000e+00 0.0000000000000000e+00  -1.0405939220193138e-05 -2.3985497005869590e-05 0.0000000000000000e+00  -1.8651935333179437e-05 -4.4703870456018797e-05 0.0000000000000000e+00  -2.3473071063521045e-05 -5.8956065395933293e-05 0.0000000000000000e+00  -2.5124857688518839e-05 -6.3694771485810312e-05 0.0000000000000000e+00  -3.1074337476698470e-06 -6.0311126853689268e-05 0.0000000000000000e+00  1.1649512833383689e-05 -4.1311382159579079e-05 0.0000000000000000e+00  1.5486672906183103e-05 -1.6605288255464377e-05 0.0000000000000000e+00  9.8482113108074864e-06 3.2806026702088865e-06 0.0000000000000000e+00  -9.4829244939593890e-07 1.1337985544249368e-05 0.0000000000000000e+00  -1.1985446060095322e-05 5.1937357700975569e-06 0.0000000000000000e+00  -1.8444169692665035e-05 -1.1515345341850334e-05 0.0000000000000000e+00  -1.5507945318149608e-05 -3.4117654464387522e-05 0.0000000000000000e+00  -1.7113061572834153e-06 -5.6760307699137598e-05 0.0000000000000000e+00  1.9450402871840487e-05 -6.4046635015027706e-05 0.0000000000000000e+00  1.8935513908743764e-05 -5.6642246946199991e-05 0.0000000000000000e+00  1.5676604859626277e-05 -4.2319911573460704e-05 0.0000000000000000e+00  8.9659915356181152e-06 -2.2600683064078238e-05 0.0000000000000000e+00  0.0000000000000000e+00 0.0000000000000000e+00 0.0000000000000000e+00  0.0000000000000000e+00 0.0000000000000000e+00 0.0000000000000000e+00  -2.3024615445213328e-05 -5.1420189380760144e-05 0.0000000000000000e+00  -3.7538855915648306e-05 -9.7224775012758698e-05 0.0000000000000000e+00  -3.7051891761556202e-05 -1.3164333871135817e-04 0.0000000000000000e+00  -1.9708763759956502e-05 -1.4915197445029190e-04 0.0000000000000000e+00  2.3260661321258213e-05 -1.2092173200443442e-04 0.0000000000000000e+00  4.2770600472533647e-05 -6.2112239777961488e-05 0.0000000000000000e+00  3.4967439460547196e-05 -4.9938579016251868e-07 0.0000000000000000e+00  1.5642226696831964e-05 3.3733394044831294e-05 0.0000000000000000e+00  -3.8789364989479572e-06 4.0644655790019205e-05 0.0000000000000000e+00  -2.1400977341465891e-05 2.9669423243523104e-05 0.0000000000000000e+00  -3.4750581094734449e-05 -7.6307681559213714e-07 0.0000000000000000e+00  -3.9791443117105582e-05 -5.2187982916563042e-05 0.0000000000000000e+00  -2.9749431284546571e-05 -1.0544080032892104e-04 0.0000000000000000e+00  6.6797969535061600e-06 -1.3163271015897439e-04 0.0000000000000000e+00  2.9355701615493415e-05 -1.2039754971803634e-04 0.0000000000000000e+00  3.3584496783470971e-05 -9.0321665932758066e-05 0.0000000000000000e+00  2.1425935800854388e-05 -4.8103399554584002e-05 0.0000000000000000e+00  0.0000000000000000e+00 0.0000000000000000e+00 0.0000000000000000e+00  0.0000000000000000e+00 0.0000000000000000e+00 0.0000000000000000e+00  -6.9677192647264464e-05 -1.0130539206000498e-04 0.0000000000000000e+00  -1.1642604424783123e-04 -1.9527696681350871e-04 0.0000000000000000e+00  -1.1805271863090186e-04 -2.7195770040947236e-04 0.0000000000000000e+00  -5.5606453793857515e-05 -3.1494602169638278e-04 0.0000000000000000e+00  2.7657042093330655e-05 -1.8491223376437588e-04 0.0000000000000000e+00  1.2084390832791300e-05 -3.2174796512910858e-05 0.0000000000000000e+00  -1.9379868196651204e-05 4.2147170234051202e-05 0.0000000000000000e+00  -2.2188032838047943e-05 5.0469334603776450e-05 0.0000000000000000e+00  -3.6708185805215154e-06 5.2869630045371830e-05 0.0000000000000000e+00  1.0213235931536103e-05 6.0338168155996849e-05 0.0000000000000000e+00  4.5404575956941964e-06 2.9563851576742012e-05 0.0000000000000000e+00  -3.1495414748754684e-05 -2.2817486555898665e-05 0.0000000000000000e+00  -4.3707228661387507e-05 -1.5289778063574261e-04 0.0000000000000000e+00  3.7656875961310181e-05 -2.9971471847286933e-04 0.0000000000000000e+00  1.1355520885028654e-04 -2.5949824814895087e-04 0.0000000000000000e+00  1.1703140415702939e-04 -1.8687960610712937e-04 0.0000000000000000e+00  7.0946493444864716e-05 -9.7136593375645358e-05 0.0000000000000000e+00  0.0000000000000000e+00 0.0000000000000000e+00 0.0000000000000000e+00  0.0000000000000000e+00 0.0000000000000000e+00 0.0000000000000000e+00  -2.0798282473476667e-04 -1.8047731789702800e-04 0.0000000000000000e+00  -3.7573762409422818e-04 -3.6241748231608304e-04 0.0000000000000000e+00  -4.5528399984330625e-04 -5.4691773712272794e-04 0.0000000000000000e+00  -3.7982537282547186e-04 -7.3421003766497791e-04 0.0000000000000000e+00  -2.4762592820308873e-04 -3.1392792652504904e-04 0.0000000000000000e+00  -2.6969552595498993e-04 4.7354199383020274e-05 0.0000000000000000e+00  -2.1642516112173926e-04 -1.5344139125695645e-05 0.0000000000000000e+00  -1.0043962048717575e-04 -3.5460889736440973e-05 0.0000000000000000e+00  -1.5161525120785586e-05 -4.0365570472144462e-05 0.0000000000000000e+00  6.9341220529910602e-05 -3.9941630114445589e-05 0.0000000000000000e+00  1.8175469087399062e-04 -4.2023456985880304e-05 0.0000000000000000e+00  2.8074938095781505e-04 8.7414522262193534e-05 0.0000000000000000e+00  2.6835528682403139e-04 -2.5274647625032800e-04 0.0000000000000000e+00  4.1765307179341223e-04 -7.0171516924969239e-04 0.0000000000000000e+00  4.8731517115558855e-04 -5.2810902160300901e-04 0.0000000000000000e+00  3.9864206696025927e-04 -3.5188001696140120e-04 0.0000000000000000e+00  2.1986074463893135e-04 -1.7570931110001383e-04 0.0000000000000000e+00  0.0000000000000000e+00 0.0000000000000000e+00 0.0000000000000000e+00  0.0000000000000000e+00 0.0000000000000000e+00 0.0000000000000000e+00  -5.0692054610256151e-04 -2.5369392291758560e-04 0.0000000000000000e+00  -9.8742573501542840e-04 -5.1914218718115523e-04 0.0000000000000000e+00  -1.4116516840735032e-03 -8.1040377211738946e-04 0.0000000000000000e+00  -1.7425608723558518e-03 -1.1470888776645082e-03 0.0000000000000000e+00  -1.6747563941057165e-03 -3.7986237235699443e-04 0.0000000000000000e+00  -1.7362842582908735e-03 3.7976254634755109e-04 0.0000000000000000e+00  -1.1951905945357369e-03 2.8742666869732995e-04 0.0000000000000000e+00  -5.9252584112354733e-04 2.3713917620155016e-04 0.0000000000000000e+00  3.3583662310147440e-05 2.2678800723368846e-04 0.0000000000000000e+00  6.6615361204803698e-04 2.5791418798519304e-04 0.0000000000000000e+00  1.2909159921823900e-03 3.3967971134718543e-04 0.0000000000000000e+00  1.8796996713367454e-03 4.9505983753998599e-04 0.0000000000000000e+00  1.8149875284954797e-03 -3.2162964880498704e-04 0.0000000000000000e+00  1.8579559246561233e-03 -1.1450400355484123e-03 0.0000000000000000e+00  1.4937863645135623e-03 -8.0698455349790632e-04 0.0000000000000000e+00  1.0403708804323315e-03 -5.1650809233142511e-04 0.0000000000000000e+00  5.3290042460786178e-04 -2.5235030241483887e-04 0.0000000000000000e+00  0.0000000000000000e+00 0.0000000000000000e+00 0.0000000000000000e+00  0.0000000000000000e+00 0.0000000000000000e+00 0.0000000000000000e+00  -9.1094073870908419e-04 -2.7977537103359026e-04 0.0000000000000000e+00  -1.8233038353272495e-03 -5.7240971577589229e-04 0.0000000000000000e+00  -2.7397005323476211e-03 -8.9189789384096674e-04 0.0000000000000000e+00  -3.6658303277531845e-03 -1.2544625863318492e-03 0.0000000000000000e+00  -3.6751731285805077e-03 -3.5639291349200749e-04 0.0000000000000000e+00  -3.6811265178762864e-03 5.5303488200046528e-04 0.0000000000000000e+00  -2.4213317790742150e-03 4.2222034037578957e-04 0.0000000000000000e+00  -1.1788727567932896e-03 3.5018532316316602e-04 0.0000000000000000e+00  5.6616672189364061e-05 3.2820756426036387e-04 0.0000000000000000e+00  1.2950349912698883e-03 3.5342726445906816e-04 0.0000000000000000e+00  2.5455907389827152e-03 4.2723308259277610e-04 0.0000000000000000e+00  3.8155374449242254e-03 5.5364997541643916e-04 0.0000000000000000e+00  3.8255694711480837e-03 -3.5324975929380701e-04 0.0000000000000000e+00  3.8310530463064006e-03 -1.2544975245474697e-03 0.0000000000000000e+00  2.8558596892822243e-03 -8.9509229374484941e-04 0.0000000000000000e+00  1.8975110844972071e-03 -5.7559153523760334e-04 0.0000000000000000e+00  9.4715636523960678e-04 -2.8161363618194084e-04 0.0000000000000000e+00  0.0000000000000000e+00 0.0000000000000000e+00 0.0000000000000000e+00  0.0000000000000000e+00 0.0000000000000000e+00 0.0000000000000000e+00  -1.3084804206446349e-03 -2.5434226008227143e-04 0.0000000000000000e+00  -2.6417446891417542e-03 -5.1809558191905948e-04 0.0000000000000000e+00  -4.0267201035552522e-03 -8.0083592090530499e-04 0.0000000000000000e+00  -5.4947302444766444e-03 -1.1123146012659143e-03 0.0000000000000000e+00  -5.5467464626586041e-03 -3.4431864418878882e-04 0.0000000000000000e+00  -5.4978939501227958e-03 4.1962912744034319e-04 0.0000000000000000e+00  -3.5801732860899077e-03 3.2252929783487130e-04 0.0000000000000000e+00  -1.7382399889907219e-03 2.6351241436086342e-04 0.0000000000000000e+00  6.7962089311966864e-05 2.4129738688422769e-04 0.0000000000000000e+00  1.8763084901864439e-03 2.5504782151791018e-04 0.0000000000000000e+00  3.7246964730252622e-03 3.0479329488350122e-04 0.0000000000000000e+00  5.6534501279860280e-03 3.9123800331288759e-04 0.0000000000000000e+00  5.7086731979446798e-03 -3.7647659200717407e-04 0.0000000000000000e+00  5.6604387924991057e-03 -1.1447803555625601e-03 0.0000000000000000e+00  4.1482174954657093e-03 -8.2327457600723792e-04 0.0000000000000000e+00  2.7212607521590335e-03 -5.3236837758732693e-04 0.0000000000000000e+00  1.3477754065368620e-03 -2.6130675731105300e-04 0.0000000000000000e+00  0.0000000000000000e+00 0.0000000000000000e+00 0.0000000000000000e+00  0.0000000000000000e+00 0.0000000000000000e+00 0.0000000000000000e+00  -1.6060495961793986e-03 -1.9124406604843842e-04 0.0000000000000000e+00  -3.2518446236031451e-03 -3.8775028631644166e-04 0.0000000000000000e+00  -4.9791967020590515e-03 -5.9468705275716365e-04 0.0000000000000000e+00  -6.8340373018944533e-03 -8.1701069854205120e-04 0.0000000000000000e+00  -6.9127981634571215e-03 -3.4120339894335361e-04 0.0000000000000000e+00  -6.8371826992220802e-03 1.3399332775279588e-04 0.0000000000000000e+00  -4.4384807553559764e-03 7.1029789895600060e-05 0.0000000000000000e+00  -2.1559102534336651e-03 3.0172183086791447e-05 0.0000000000000000e+00  7.0677040610087559e-05 1.1058903863940463e-05 0.0000000000000000e+00  2.2985183938743470e-03 1.3209595958920375e-05 0.0000000000000000e+00  4.5847702750611667e-03 3.6055668834118019e-05 0.0000000000000000e+00  6.9893016638859391e-03 7.8827548052135503e-05 0.0000000000000000e+00  7.0695056969930859e-03 -3.9388093057777455e-04 0.0000000000000000e+00  6.9931356606502716e-03 -8.6519542133438939e-04 0.0000000000000000e+00  5.0968474200967602e-03 -6.2886124415843390e-04 0.0000000000000000e+00  3.3294495131756200e-03 -4.0964564937313468e-04 0.0000000000000000e+00  1.6445986095255257e-03 -2.0193633096984859e-04 0.0000000000000000e+00  0.0000000000000000e+00 0.0000000000000000e+00 0.0000000000000000e+00  0.0000000000000000e+00 0.0000000000000000e+00 0.0000000000000000e+00  -1.7438624976966039e-03 -1.0711000179815580e-04 0.0000000000000000e+00  -3.5341845366477476e-03 -2.1566237349992373e-04 0.0000000000000000e+00  -5.4192016057125255e-03 -3.2694474258477581e-04 0.0000000000000000e+00  -7.4507024324572358e-03 -4.4193919607797127e-04 0.0000000000000000e+00  -7.5406954797085889e-03 -3.4082113242245364e-04 0.0000000000000000e+00  -7.4520936460284537e-03 -2.4036795226688637e-04 0.0000000000000000e+00  -4.8352134060379260e-03 -2.6850879065024838e-04 0.0000000000000000e+00  -2.3510531579699701e-03 -2.8974860947266471e-04 0.0000000000000000e+00  6.8312452213330021e-05 -3.0384019901991089e-04 0.0000000000000000e+00  2.4883483409261806e-03 -3.1102815613153964e-04 0.0000000000000000e+00  4.9744844165973507e-03 -3.1203181003638177e-04 0.0000000000000000e+00  7.5945500526200596e-03 -3.0808805611073469e-04 0.0000000000000000e+00  7.6848591672585634e-03 -4.0255973170801480e-04 0.0000000000000000e+00  7.5957532661226996e-03 -4.9606580688294269e-04 0.0000000000000000e+00  5.5271691072983449e-03 -3.6591771339727290e-04 0.0000000000000000e+00  3.6057613101985017e-03 -2.4087292845448977e-04 0.0000000000000000e+00  1.7795282965672207e-03 -1.1948428558892470e-04 0.0000000000000000e+00  -5.4911139279564835e-12 -6.8648463110628973e-12 0.0000000000000000e+00  0.0000000000000000e+00 0.0000000000000000e+00 0.0000000000000000e+00  -1.6951210539761317e-03 -1.7221117415632721e-05 0.0000000000000000e+00  -3.4362207156431296e-03 -3.2657716917850371e-05 0.0000000000000000e+00  -5.2707220453250851e-03 -4.4350986650115511e-05 0.0000000000000000e+00  -7.2489266055663854e-03 -4.9989957399064851e-05 0.0000000000000000e+00  -7.3371046560717921e-03 -3.4411766139390862e-04 0.0000000000000000e+00  -7.2497943298852965e-03 -6.3897617116300790e-04 0.0000000000000000e+00  -4.7040563126179514e-03 -6.3552212331497956e-04 0.0000000000000000e+00  -2.2884289891294059e-03 -6.3812146965027468e-04 0.0000000000000000e+00  6.3259278288933725e-05 -6.4621328079963992e-04 0.0000000000000000e+00  2.4151709410821882e-03 -6.5987355435983836e-04 0.0000000000000000e+00  4.8314442777869044e-03 -6.7980324923934464e-04 0.0000000000000000e+00  7.3781801207341352e-03 -7.0734016413345985e-04 0.0000000000000000e+00  7.4650340179572752e-03 -4.0533750460516042e-04 0.0000000000000000e+00  7.3762415708051605e-03 -1.0276848374608699e-04 0.0000000000000000e+00  5.3661427044261389e-03 -8.2569003400248482e-05 0.0000000000000000e+00  3.4997879017157106e-03 -5.7490155876385476e-05 0.0000000000000000e+00  1.7268856602603824e-03 -2.9443640711693775e-05 0.0000000000000000e+00  0.0000000000000000e+00 0.0000000000000000e+00 0.0000000000000000e+00  0.0000000000000000e+00 0.0000000000000000e+00 0.0000000000000000e+00  -1.4617296156331518e-03 6.5530279169080598e-05 0.0000000000000000e+00  -2.9630934933988621e-03 1.3537284857881486e-04 0.0000000000000000e+00  -4.5448404293449238e-03 2.1401954456085203e-04 0.0000000000000000e+00  -6.2498818571608133e-03 3.0633150757530423e-04 0.0000000000000000e+00  -6.3259443936417069e-03 -3.5079162365752014e-04 0.0000000000000000e+00  -6.2511373694714547e-03 -1.0085636114528322e-03 0.0000000000000000e+00  -4.0553580819504198e-03 -9.7843647338787996e-04 0.0000000000000000e+00  -1.9713882510791689e-03 -9.6463290100165121e-04 0.0000000000000000e+00  5.7380018818983497e-05 -9.6642242789658956e-04 0.0000000000000000e+00  2.0860281701909496e-03 -9.8375983022182538e-04 0.0000000000000000e+00  4.1696182241401664e-03 -1.0172817143525891e-03 0.0000000000000000e+00  6.3647011886730906e-03 -1.0683114241040160e-03 0.0000000000000000e+00  6.4373133705912366e-03 -4.0368861396445401e-04 0.0000000000000000e+00  6.3595529073275040e-03 2.6127495914597822e-04 0.0000000000000000e+00  4.6276013113969510e-03 1.8124591418758830e-04 0.0000000000000000e+00  3.0184939939334032e-03 1.1400905096487202e-04 0.0000000000000000e+00  1.4894908902420446e-03 5.4994208866763521e-05 0.0000000000000000e+00  0.0000000000000000e+00 0.0000000000000000e+00 0.0000000000000000e+00  0.0000000000000000e+00 0.0000000000000000e+00 0.0000000000000000e+00  -1.0689620031581427e-03 1.3104757285869209e-04 0.0000000000000000e+00  -2.1667844755790867e-03 2.6819575803690537e-04 0.0000000000000000e+00  -3.3231106305516918e-03 4.1772728291659798e-04 0.0000000000000000e+00  -4.5690172309900048e-03 5.8630037392649317e-04 0.0000000000000000e+00  -4.6251251476361515e-03 -3.6031516590504865e-04 0.0000000000000000e+00  -4.5712901149040329e-03 -1.3074274838050951e-03 0.0000000000000000e+00  -2.9622157587911070e-03 -1.2563199263884554e-03 0.0000000000000000e+00  -1.4348076014708642e-03 -1.2290337768977391e-03 0.0000000000000000e+00  5.2100108296515357e-05 -1.2247057266949772e-03 0.0000000000000000e+00  1.5386333849261237e-03 -1.2431815290268994e-03 0.0000000000000000e+00  3.0648988769145908e-03 -1.2850150890915213e-03 0.0000000000000000e+00  4.6720049950647905e-03 -1.3514710515666487e-03 0.0000000000000000e+00  4.7223969866180323e-03 -3.9900579750155516e-04 0.0000000000000000e+00  4.6638085826034761e-03 5.5362417262314154e-04 0.0000000000000000e+00  3.3951555405522514e-03 3.9389364343444925e-04 0.0000000000000000e+00  2.2152510877219197e-03 2.5262736867341938e-04 0.0000000000000000e+00  1.0933192566145245e-03 1.2335941819573352e-04 0.0000000000000000e+00  0.0000000000000000e+00 0.0000000000000000e+00 0.0000000000000000e+00  0.0000000000000000e+00 0.0000000000000000e+00 0.0000000000000000e+00  -5.5978116603160846e-04 1.7217965533721985e-04 0.0000000000000000e+00  -1.1346895183009364e-03 3.5149509029714813e-04 0.0000000000000000e+00  -1.7402917436286844e-03 5.4526671793850106e-04 0.0000000000000000e+00  -2.3928501791968680e-03 7.6118965732891244e-04 0.0000000000000000e+00  -2.4236592207397723e-03 -3.7176570529656668e-04 0.0000000000000000e+00  -2.3963900174466023e-03 -1.5049757976897378e-03 0.0000000000000000e+00  -1.5451445070386617e-03 -1.4391929451081965e-03 0.0000000000000000e+00  -7.3746379804964378e-04 -1.4018821395873327e-03 0.0000000000000000e+00  4.8440170828892295e-05 -1.3920595458580302e-03 0.0000000000000000e+00  8.3380421917579259e-04 -1.4094653834545144e-03 0.0000000000000000e+00  1.6398432507707594e-03 -1.4545636497109826e-03 0.0000000000000000e+00  2.4882796837937160e-03 -1.5285434095578070e-03 0.0000000000000000e+00  2.5113544047515091e-03 -3.9230899463481663e-04 0.0000000000000000e+00 