<?xml version="1.0"?>
<VTKFile type="UnstructuredGrid"  version="0.1"  >
<UnstructuredGrid>
<Piece  NumberOfPoints="589" NumberOfCells="1080">
<Points>
<DataArray  type="Float64"  NumberOfComponents="3"  format="ascii">-9 0 0  -8 0 0  -7 0 0  -6 0 0  -5 0 0  -4 0 0  -3 0 0  -2 0 0  -1 0 0  0 0 0  1 0 0  2 0 0  3 0 0  4 0 0  5 0 0  6 0 0  7 0 0  8 0 0  9 0 0  -9 2 0  -8.000002321637462 1.999996969617801 0  -7.000004896939212 1.999994255272126 0  -6.000008244800227 1.99999210672401 0  -5.000013487022884 1.999990611283158 0  -4.000008641210605 1.999993144447536 0  -3.000003525740157 1.999995241465499 0  -2.000000825584114 1.999997076661542 0  -0.999999948627082 1.999998518118505 0  -2.079184780173236e-07 1.999999151841828 0  0.9999994400703648 1.999998739429157 0  2.000000001145708 1.999997382448923 0  3.000002163006934 1.999995689641264 0  4.000006157752278 1.999993825173386 0  5.000011808113292 1.999992942828414 0  6.000007134766128 1.999993420931238 0  7.000004213038112 1.999994999264822 0  8.000001994683943 1.999997313311011 0  9 2 0  -9 4 0  -8.000003628601988 3.999992675138421 0  -7.000006703637141 3.999986247391934 0  -6.000008912138064 3.999981601039611 0  -5.000010340431803 3.999979592240962 0  -4.000003636015382 3.999980638861277 0  -2.999998922237341 3.999986074794829 0  -1.999997214075987 3.999993134637149 0  -0.9999981159170435 3.999998778483656 0  -4.633033345990484e-07 4.000001072733002 0  0.9999971153387492 3.999999370695069 0  1.999995969039642 3.999994670907021 0  2.999997435568982 3.999988280736991 0  4.000001888771689 3.999981865106415 0  5.000008263766272 3.9999796947183 0  6.000007263026515 3.999982440969184 0  7.000005612561 3.999987055728898 0  8.000003094663905 3.999993136102299 0  9 4 0  -9 6 0  -8.000007149780364 5.999984792411978 0  -7.000011976474363 5.999971114127781 0  -6.000012700324185 5.999960545315811 0  -5.000008800420348 5.999954617009902 0  -3.999996318117841 5.99996248147183 0  -2.999990338174132 5.999978916928361 0  -1.999991880389894 5.999996138082881 0  -0.9999966207054422 6.00000574758733 0  -1.42888732860968e-06 6.000007745649964 0  0.9999943318542194 6.000004676255991 0  1.999991276492543 5.999996180937032 0  2.999990488059311 5.999981889464205 0  3.999993820431595 5.999967104304483 0  5.000004431467423 5.999959895207569 0  6.000009990202034 5.999963987139799 0  7.00001048176482 5.99997324993773 0  8.000006501633981 5.999985824990887 0  9 6 0  -9 8 0  -8.000019963177575 7.999970793402112 0  -7.000033660369348 7.999943543967313 0  -6.000034983386851 7.999920928531314 0  -5.000018615739645 7.999907392082765 0  -3.999995208066903 7.999943421363334 0  -2.999998856971749 7.999985774824797 0  -2.000006955384227 8.000006546883258 0  -1.00000718468995 8.000009113735286 0  -1.583759940475121e-06 8.000009865875512 0  1.000002783301651 8.000011803262788 0  2.000001718585783 8.000003226722715 0  2.999992426254771 7.999988462098887 0  3.999989897839399 7.999952554888215 0  5.000012915924941 7.999912208650242 0  6.000032985420439 7.999924851160496 0  7.00003323699006 7.999946196140197 0  8.000019993955185 7.999972114837381 0  9 8 0  -9 10 0  -8.000057836035491 9.999948969391944 0  -7.000104833911641 9.999897443425748 0  -6.000128024528023 9.999845005035032 0  -5.000109290447698 9.999791415416126 0  -4.000072690986342 9.99990646267924 0  -3.00007750275545 10.00000562548729 0  -2.000061688143221 9.999989324776111 0  -1.000029084957451 9.999984098447957 0  -4.866387740731771e-06 9.999982837719982 0  1.000019128134506 9.999982879282713 0  2.000050665293841 9.999982085816802 0  3.00007912959402 10.00001635307471 0  4.000076942659985 9.999923375832646 0  5.000117860829126 9.999801270068172 0  6.000135243071703 9.999850912507167 0  7.000109964787624 9.999900851540302 0  8.000060486085125 9.999950541438038 0  9 10 0  -9 12 0  -8.000139041158107 11.99992913441823 0  -7.000271203394868 11.99985500531884 0  -6.000388701760956 11.9997737084914 0  -5.000481916007786 11.9996797955465 0  -4.000463561061593 11.99988754837055 0  -3.000479438021547 12.00009327607112 0  -2.000329815392279 12.00006823860716 0  -1.000164469411389 12.00005457372954 0  6.838571694654975e-06 12.00005164345591 0  1.000179988185087 12.00005984256567 0  2.000351615402122 12.00008166399219 0  3.000514746034944 12.00012339118889 0  4.000498463197077 11.99990346641301 0  5.00050990515484 11.99968185266426 0  6.00040809808141 11.99977580379606 0  7.000283471716687 11.99985651359653 0  8.000144993786044 11.99992989969387 0  9 12 0  -9 14 0  -8.000247720445673 13.99992236194394 0  -7.000496162191999 13.99984125266283 0  -6.000746402672874 13.99975289755798 0  -5.001000472056051 13.99965293184237 0  -4.001003158614329 13.99989340843348 0  -3.001003654237987 14.00013701460969 0  -2.000660914020253 14.00010167802454 0  -1.000323736713771 14.00008212442016 0  1.118536895914056e-05 14.00007594424108 0  1.000346996254395 14.00008233195579 0  2.000686663838533 14.00010164139287 0  3.001032686730365 14.00013494354869 0  4.001036650991555 13.99989425988997 0  5.001037893635452 13.9996551673687 0  6.000772131766899 13.99975369266232 0  7.000512327188326 13.99984148969837 0  8.000255528806901 13.99992241163758 0  9 14 0  -9 16 0  -8.000353458462097 15.99992947980366 0  -7.000713833995294 15.99985649482012 0  -6.001088640106207 15.9997785463127 0  -5.001486642660354 15.99969311615998 0  -4.001500664061963 15.99989600928426 0  -3.00148667379091 16.00009776600392 0  -2.000969905034266 16.00007203013496 0  -1.000474046930993 16.0000562171739 0  1.197804289107467e-05 16.0000500056091 0  1.000498642468258 16.00005316600586 0  2.000996429334984 16.00006567935145 0  3.00151650173852 16.00008768339467 0  4.001532264974234 15.9998874681937 0  5.001519199007545 15.99968708375667 0  6.001112172299156 15.99977451528544 0  7.000729058528941 15.9998539808361 0  8.000360926186591 15.99992826558783 0  9 16 0  -9 18 0  -8.000431470041296 17.99994645800527 0  -7.000873679132749 17.99989159638319 0  -6.001337924154591 17.99983413016602 0  -5.001836626181217 17.99977285590911 0  -4.001857551677025 17.99989602936154 0  -3.001836893062762 18.00001903177898 0  -2.001195435068192 18.00000272544809 0  -1.000585110085911 17.99999194087271 0  1.020864526377593e-05 17.99998661525558 0  1.000605874479811 17.99998662347914 0  2.001217219883666 17.99999178801529 0  3.001860298398602 18.0000018471874 0  4.001882170071004 17.99988223443797 0  5.001861852483277 17.99976299210737 0  6.00135637715861 17.99982721432573 0  7.000885748697074 17.99988720286256 0  8.000437432992335 17.99994432355084 0  9 18 0  -9 20 0  -8.00046647187621 19.9999687134688 0  -7.000945275009481 19.99993711710272 0  -6.001449206288503 19.9999049488698 0  -5.001991995231054 19.99987204411395 0  -4.002015620480664 19.999895264426 0  -3.001991991232189 19.9999183281195 0  -2.001296634229637 19.9999113583003 0  -1.000636244025475 19.9999058547962 0  7.046274069374066e-06 19.99990191510248 0  1.000650473972925 19.99989948027583 0  2.001311265582169 19.99989834051268 0  3.00200725792717 19.99989812344956 0  4.002031277599888 19.99987930126524 0  5.002007914838324 19.99986074612321 0  6.001461008775759 19.99989685070109 0  7.000953073984914 19.99993189736594 0  8.000470349651472 19.99996615718471 0  8.999999999996396 20.00000000000344 0  -9 22 0  -8.000452100049545 21.99999220683787 0  -7.000916254967387 21.99998492439151 0  -6.001404885128212 21.99997871286364 0  -5.001931140489932 21.99997423218948 0  -4.00195403579894 21.99989362086666 0  -3.001931100461887 21.9998128683897 0  -2.00125816707461 21.99981413273947 0  -1.000619073426967 21.9998135212969 0  3.33378604935384e-06 21.99981120332736 0  1.000625711542316 21.99980716383615 0  2.001264707522556 21.99980120738044 0  3.001937447374267 21.99979295521767 0  4.001960171634546 21.99987796949495 0  5.001937196519765 21.99996316725777 0  6.001409579170301 21.99997071720191 0  7.000919451764731 21.99997973762165 0  8.000453717563129 21.99998965647774 0  9 22 0  -9 24 0  -8.000389459871155 24.00001365694026 0  -7.000789230085 24.00002844734311 0  -6.001209890436181 24.00004555219052 0  -5.001662553484349 24.00006624775412 0  -4.001682106245799 23.99989135188894 0  -3.001662623228696 23.99971635793475 0  -2.001084533875222 23.99972440120934 0  -1.000535246250538 23.99972800531126 0  -2.563463532059272e-07 23.99972736897004 0  1.000534574870374 23.99972250593025 0  2.001083377747865 23.99971324640367 0  3.001660630097829 23.99969923633562 0  4.001679431149952 23.99987795885275 0  5.001659568051654 24.00005682317637 0  6.001208022596149 24.00003870007329 0  7.00078815739448 24.0000239828123 0  8.000388974110361 24.00001145582447 0  9 24 0  -9 26 0  -8.000285524597542 26.00003057381687 0  -7.000578537842143 26.00006271296449 0  -6.000886707211941 26.00009802795338 0  -5.001218049110361 26.00013821998089 0  -4.001232348389707 25.999888701687 0  -3.001218350133991 25.99963912616359 0  -2.000795878309186 25.99965240667304 0  -1.000394312016324 25.9996594330257 0  -3.203905317653642e-06 25.99966042308852 0  1.000387651739121 25.99965541508247 0  2.000788453276731 25.99964426771685 0  3.001209620034882 25.99962666041457 0  4.001222605287841 25.99987898580152 0  5.001207834774855 26.00013141005703 0  6.000879579819704 26.00009305933489 0  7.000574035386813 26.00005946709705 0  8.000283346920234 26.00002897091331 0  9 26 0  -9 28 0  -8.000151572161776 28.00004123025816 0  -7.000307105685154 28.00008427559383 0  -6.000470653981709 28.00013099478049 0  -5.000646443025881 28.00018333400852 0  -4.000654243509926 27.99988591494338 0  -3.000647067029857 27.99958848323099 0  -2.000423781567698 27.99960541059203 0  -1.000211628916846 27.99961498739194 0  -5.134970211030987e-06 27.99961745051946 0  1.000201049529593 27.99961286197112 0  2.000412264714192 27.99960110838534 0  3.000633957342203 27.99958190147481 0  4.000639924310099 27.99988080133908 0  5.000631560363399 28.00017976573902 0  6.000460125068363 28.000128385909 0  7.000300383044876 28.00008256860257 0  8.00014829872485
[...]
<PointData  Vectors="f_42"> 
<DataArray  type="Float64"  Name="f_42"  NumberOfComponents="3" format="ascii">0.0000000000000000e+00 0.0000000000000000e+00 0.0000000000000000e+00  0.0000000000000000e+00 0.0000000000000000e+00 0.0000000000000000e+00  0.0000000000000000e+00 0.0000000000000000e+00 0.0000000000000000e+00  0.0000000000000000e+00 0.0000000000000000e+00 0.0000000000000000e+00  0.0000000000000000e+00 0.0000000000000000e+00 0.0000000000000000e+00  0.0000000000000000e+00 0.0000000000000000e+00 0.0000000000000000e+00  0.0000000000000000e+00 0.0000000000000000e+00 0.0000000000000000e+00  0.0000000000000000e+00 0.0000000000000000e+00 0.0000000000000000e+00  0.0000000000000000e+00 0.0000000000000000e+00 0.0000000000000000e+00  0.0000000000000000e+00 0.0000000000000000e+00 0.0000000000000000e+00  0.0000000000000000e+00 0.0000000000000000e+00 0.0000000000000000e+00  0.0000000000000000e+00 0.0000000000000000e+00 0.0000000000000000e+00  0.0000000000000000e+00 0.0000000000000000e+00 0.0000000000000000e+00  0.0000000000000000e+00 0.0000000000000000e+00 0.0000000000000000e+00  0.0000000000000000e+00 0.0000000000000000e+00 0.0000000000000000e+00  0.0000000000000000e+00 0.0000000000000000e+00 0.0000000000000000e+00  0.0000000000000000e+00 0.0000000000000000e+00 0.0000000000000000e+00  0.0000000000000000e+00 0.0000000000000000e+00 0.0000000000000000e+00  0.0000000000000000e+00 0.0000000000000000e+00 0.0000000000000000e+00  0.0000000000000000e+00 0.0000000000000000e+00 0.0000000000000000e+00  -2.3216374604462418e-06 -3.0303821983224928e-06 0.0000000000000000e+00  -4.8969392120164384e-06 -5.7447278736638020e-06 0.0000000000000000e+00  -8.2448002244482653e-06 -7.8932759905987479e-06 0.0000000000000000e+00  -1.3487022885928551e-05 -9.3887168429456533e-06 0.0000000000000000e+00  -8.6412106040004060e-06 -6.8555524637689247e-06 0.0000000000000000e+00  -3.5257401577516039e-06 -4.7585345013462899e-06 0.0000000000000000e+00  -8.2558411297920275e-07 -2.9233384583335887e-06 0.0000000000000000e+00  5.1372917967531943e-08 -1.4818814956796597e-06 0.0000000000000000e+00  -2.0791847801732361e-07 -8.4815817213071114e-07 0.0000000000000000e+00  -5.5992963484813860e-07 -1.2605708425783894e-06 0.0000000000000000e+00  1.1457062079149056e-09 -2.6175510765151410e-06 0.0000000000000000e+00  2.1630069346433527e-06 -4.3103587368033960e-06 0.0000000000000000e+00  6.1577522769511958e-06 -6.1748266138800474e-06 0.0000000000000000e+00  1.1808113290155592e-05 -7.0571715865037068e-06 0.0000000000000000e+00  7.1347661258654573e-06 -6.5790687626645052e-06 0.0000000000000000e+00  4.2130381139082936e-06 -5.0007351775790693e-06 0.0000000000000000e+00  1.9946839378070126e-06 -2.6866889897437803e-06 0.0000000000000000e+00  0.0000000000000000e+00 0.0000000000000000e+00 0.0000000000000000e+00  0.0000000000000000e+00 0.0000000000000000e+00 0.0000000000000000e+00  -3.6286019849720168e-06 -7.3248615796342968e-06 0.0000000000000000e+00  -6.7036371343512246e-06 -1.3752608066660171e-05 0.0000000000000000e+00  -8.9121380650714727e-06 -1.8398960388968827e-05 0.0000000000000000e+00  -1.0340431805204444e-05 -2.0407759037977141e-05 0.0000000000000000e+00  -3.6360153824038146e-06 -1.9361138723178032e-05 0.0000000000000000e+00  1.0777626583177385e-06 -1.3925205171021860e-05 0.0000000000000000e+00  2.7859240126199588e-06 -6.8653628503326214e-06 0.0000000000000000e+00  1.8840829564574788e-06 -1.2215163424684796e-06 0.0000000000000000e+00  -4.6330333459904843e-07 1.0727330031726133e-06 0.0000000000000000e+00  -2.8846612513226749e-06 -6.2930493038079218e-07 0.0000000000000000e+00  -4.0309603573484856e-06 -5.3290929788613597e-06 0.0000000000000000e+00  -2.5644310150151643e-06 -1.1719263010527563e-05 0.0000000000000000e+00  1.8887716868706110e-06 -1.8134893585339651e-05 0.0000000000000000e+00  8.2637662702025046e-06 -2.0305281698952362e-05 0.0000000000000000e+00  7.2630265109539687e-06 -1.7559030816587254e-05 0.0000000000000000e+00  5.6125610011992134e-06 -1.2944271100467167e-05 0.0000000000000000e+00  3.0946639098876931e-06 -6.8638977008758831e-06 0.0000000000000000e+00  0.0000000000000000e+00 0.0000000000000000e+00 0.0000000000000000e+00  0.0000000000000000e+00 0.0000000000000000e+00 0.0000000000000000e+00  -7.1497803649370523e-06 -1.5207588023576864e-05 0.0000000000000000e+00  -1.1976474363641805e-05 -2.8885872216172939e-05 0.0000000000000000e+00  -1.2700324185853462e-05 -3.9454684189606912e-05 0.0000000000000000e+00  -8.8004203464695988e-06 -4.5382990097703212e-05 0.0000000000000000e+00  3.6818821608289597e-06 -3.7518528167261780e-05 0.0000000000000000e+00  9.6618258689576798e-06 -2.1083071637061190e-05 0.0000000000000000e+00  8.1196101060695213e-06 -3.8619171206668755e-06 0.0000000000000000e+00  3.3792945579204220e-06 5.7475873291903138e-06 0.0000000000000000e+00  -1.4288873286096801e-06 7.7456499618170059e-06 0.0000000000000000e+00  -5.6681457808953549e-06 4.6762559937504080e-06 0.0000000000000000e+00  -8.7235074572981478e-06 -3.8190629681119175e-06 0.0000000000000000e+00  -9.5119406900121807e-06 -1.8110535792485267e-05 0.0000000000000000e+00  -6.1795684052755370e-06 -3.2895695516010849e-05 0.0000000000000000e+00  4.4314674244497790e-06 -4.0104792430181614e-05 0.0000000000000000e+00  9.9902020318139817e-06 -3.6012860200187678e-05 0.0000000000000000e+00  1.0481764819005977e-05 -2.6750062272079728e-05 0.0000000000000000e+00  6.5016339799094384e-06 -1.4175009112904730e-05 0.0000000000000000e+00  0.0000000000000000e+00 0.0000000000000000e+00 0.0000000000000000e+00  0.0000000000000000e+00 0.0000000000000000e+00 0.0000000000000000e+00  -1.9963177580704409e-05 -2.9206597885685694e-05 0.0000000000000000e+00  -3.3660369347589330e-05 -5.6456032689777185e-05 0.0000000000000000e+00  -3.4983386852127183e-05 -7.9071468691844805e-05 0.0000000000000000e+00  -1.8615739646669010e-05 -9.2607917232586748e-05 0.0000000000000000e+00  4.7919330967664543e-06 -5.6578636667098374e-05 0.0000000000000000e+00  1.1430282496145298e-06 -1.4225175202295226e-05 0.0000000000000000e+00  -6.9553842277856222e-06 6.5468832592012020e-06 0.0000000000000000e+00  -7.1846899495538281e-06 9.1137352856120064e-06 0.0000000000000000e+00  -1.5837599404751206e-06 9.8658755102752020e-06 0.0000000000000000e+00  2.7833016515759327e-06 1.1803262785925661e-05 0.0000000000000000e+00  1.7185857813048081e-06 3.2267227141177943e-06 0.0000000000000000e+00  -7.5737452294945297e-06 -1.1537901110289112e-05 0.0000000000000000e+00  -1.0102160600064498e-05 -4.7445111785079176e-05 0.0000000000000000e+00  1.2915924937619653e-05 -8.7791349760332757e-05 0.0000000000000000e+00  3.2985420441093985e-05 -7.5148839502061108e-05 0.0000000000000000e+00  3.3236990058530031e-05 -5.3803859804299291e-05 0.0000000000000000e+00  1.9993955185857601e-05 -2.7885162619051774e-05 0.0000000000000000e+00  0.0000000000000000e+00 0.0000000000000000e+00 0.0000000000000000e+00  0.0000000000000000e+00 0.0000000000000000e+00 0.0000000000000000e+00  -5.7836035488192036e-05 -5.1030608058384952e-05 0.0000000000000000e+00  -1.0483391164033775e-04 -1.0255657425006894e-04 0.0000000000000000e+00  -1.2802452802097134e-04 -1.5499496496718270e-04 0.0000000000000000e+00  -1.0929044769931715e-04 -2.0858458387643846e-04 0.0000000000000000e+00  -7.2690986342516733e-05 -9.3537320760006212e-05 0.0000000000000000e+00  -7.7502755451664798e-05 5.6254872834176604e-06 0.0000000000000000e+00  -6.1688143222281063e-05 -1.0675223883383590e-05 0.0000000000000000e+00  -2.9084957451375976e-05 -1.5901552041157140e-05 0.0000000000000000e+00  -4.8663877407317709e-06 -1.7162280023900961e-05 0.0000000000000000e+00  1.9128134506912153e-05 -1.7120717286113493e-05 0.0000000000000000e+00  5.0665293841213748e-05 -1.7914183202163433e-05 0.0000000000000000e+00  7.9129594020125265e-05 1.6353074709189218e-05 0.0000000000000000e+00  7.6942659985537666e-05 -7.6624167355542066e-05 0.0000000000000000e+00  1.1786082912699007e-04 -1.9872993183437206e-04 0.0000000000000000e+00  1.3524307170344411e-04 -1.4908749282957240e-04 0.0000000000000000e+00  1.0996478762207277e-04 -9.9148459695916038e-05 0.0000000000000000e+00  6.0486085122526347e-05 -4.9458561963278205e-05 0.0000000000000000e+00  0.0000000000000000e+00 0.0000000000000000e+00 0.0000000000000000e+00  0.0000000000000000e+00 0.0000000000000000e+00 0.0000000000000000e+00  -1.3904115810795201e-04 -7.0865581769785849e-05 0.0000000000000000e+00  -2.7120339486696223e-04 -1.4499468115711223e-04 0.0000000000000000e+00  -3.8870176095451075e-04 -2.2629150859919514e-04 0.0000000000000000e+00  -4.8191600778622683e-04 -3.2020445349619398e-04 0.0000000000000000e+00  -4.6356106159411401e-04 -1.1245162945299717e-04 0.0000000000000000e+00  -4.7943802154717068e-04 9.3276071120811069e-05 0.0000000000000000e+00  -3.2981539227796647e-04 6.8238607157877990e-05 0.0000000000000000e+00  -1.6446941138841838e-04 5.4573729540188704e-05 0.0000000000000000e+00  6.8385716946549751e-06 5.1643455907678756e-05 0.0000000000000000e+00  1.7998818508775191e-04 5.9842565670700718e-05 0.0000000000000000e+00  3.5161540212158261e-04 8.1663992190315050e-05 0.0000000000000000e+00  5.1474603494338278e-04 1.2339118888329457e-04 0.0000000000000000e+00  4.9846319707898918e-04 -9.6533586987361663e-05 0.0000000000000000e+00  5.0990515483723131e-04 -3.1814733573909182e-04 0.0000000000000000e+00  4.0809808140943195e-04 -2.2419620393334826e-04 0.0000000000000000e+00  2.8347171668835199e-04 -1.4348640346752240e-04 0.0000000000000000e+00  1.4499378604225467e-04 -7.0100306135059126e-05 0.0000000000000000e+00  0.0000000000000000e+00 0.0000000000000000e+00 0.0000000000000000e+00  0.0000000000000000e+00 0.0000000000000000e+00 0.0000000000000000e+00  -2.4772044567565149e-04 -7.7638056061052303e-05 0.0000000000000000e+00  -4.9616219199861587e-04 -1.5874733717392964e-04 0.0000000000000000e+00  -7.4640267287316622e-04 -2.4710244202291959e-04 0.0000000000000000e+00  -1.0004720560517317e-03 -3.4706815763124098e-04 0.0000000000000000e+00  -1.0031586143291573e-03 -1.0659156650718542e-04 0.0000000000000000e+00  -1.0036542379857501e-03 1.3701460968326096e-04 0.0000000000000000e+00  -6.6091402025520547e-04 1.0167802454225550e-04 0.0000000000000000e+00  -3.2373671376942088e-04 8.2124420157499113e-05 0.0000000000000000e+00  1.1185368959140557e-05 7.5944241081652068e-05 0.0000000000000000e+00  3.4699625439458561e-04 8.2331955792745183e-05 0.0000000000000000e+00  6.8666383853303783e-04 1.0164139286583285e-04 0.0000000000000000e+00  1.0326867303650765e-03 1.3494354869082994e-04 0.0000000000000000e+00  1.0366509915524446e-03 -1.0574011003175361e-04 0.0000000000000000e+00  1.0378936354519101e-03 -3.4483263129977151e-04 0.0000000000000000e+00  7.7213176690165905e-04 -2.4630733768366713e-04 0.0000000000000000e+00  5.1232718832521537e-04 -1.5851030162581959e-04 0.0000000000000000e+00  2.5552880689859268e-04 -7.7588362419964079e-05 0.0000000000000000e+00  0.0000000000000000e+00 0.0000000000000000e+00 0.0000000000000000e+00  0.0000000000000000e+00 0.0000000000000000e+00 0.0000000000000000e+00  -3.5345846209941263e-04 -7.0520196353412258e-05 0.0000000000000000e+00  -7.1383399529317056e-04 -1.4350517987529339e-04 0.0000000000000000e+00  -1.0886401062069572e-03 -2.2145368730222450e-04 0.0000000000000000e+00  -1.4866426603558829e-03 -3.0688384002549365e-04 0.0000000000000000e+00  -1.5006640619608625e-03 -1.0399071573201081e-04 0.0000000000000000e+00  -1.4866737909105432e-03 9.7766003916266656e-05 0.0000000000000000e+00  -9.6990503426524371e-04 7.2030134963208523e-05 0.0000000000000000e+00  -4.7404693099294462e-04 5.6217173895469023e-05 0.0000000000000000e+00  1.1978042891074674e-05 5.0005609105356071e-05 0.0000000000000000e+00  4.9864246825818092e-04 5.3166005853645435e-05 0.0000000000000000e+00  9.9642933498254632e-04 6.5679351447109485e-05 0.0000000000000000e+00  1.5165017385213495e-03 8.7683394673085019e-05 0.0000000000000000e+00  1.5322649742324141e-03 -1.1253180629282305e-04 0.0000000000000000e+00  1.5191990075463942e-03 -3.1291624332614401e-04 0.0000000000000000e+00  1.1121722991590296e-03 -2.2548471455752301e-04 0.0000000000000000e+00  7.2905852894151850e-04 -1.4601916390348451e-04 0.0000000000000000e+00  3.6092618659350542e-04 -7.1734412164283092e-05 0.0000000000000000e+00  0.0000000000000000e+00 0.0000000000000000e+00 0.0000000000000000e+00  0.0000000000000000e+00 0.0000000000000000e+00 0.0000000000000000e+00  -4.3147004128599702e-04 -5.3541994730536278e-05 0.0000000000000000e+00  -8.7367913274914223e-04 -1.0840361680893682e-04 0.0000000000000000e+00  -1.3379241545895446e-03 -1.6586983398355360e-04 0.0000000000000000e+00  -1.8366261812189537e-03 -2.2714409088165027e-04 0.0000000000000000e+00  -1.8575516770261348e-03 -1.0397063847542643e-04 0.0000000000000000e+00  -1.8368930627624235e-03 1.9031778971725819e-05 0.0000000000000000e+00  -1.1954350681921753e-03 2.7254480967199549e-06 0.0000000000000000e+00  -5.8511008591280466e-04 -8.0591272977155293e-06 0.0000000000000000e+00  1.0208645263775927e-05 -1.3384744430613742e-05 0.0000000000000000e+00  6.0587447981104306e-04 -1.3376520855571640e-05 0.0000000000000000e+00  1.2172198836652170e-03 -8.2119847074452056e-06 0.0000000000000000e+00  1.8602983985994547e-03 1.8471873897037145e-06 0.0000000000000000e+00  1.8821700710034460e-03 -1.1776556203284604e-04 0.0000000000000000e+00  1.8618524832773732e-03 -2.3700789264093867e-04 0.0000000000000000e+00  1.3563771586087815e-03 -1.7278567428125123e-04 0.0000000000000000e+00  8.8574869707590959e-04 -1.1279713744522321e-04 0.0000000000000000e+00  4.3743299233178805e-04 -5.5676449158137455e-05 0.0000000000000000e+00  0.0000000000000000e+00 0.0000000000000000e+00 0.0000000000000000e+00  0.0000000000000000e+00 0.0000000000000000e+00 0.0000000000000000e+00  -4.6647187620721533e-04 -3.1286531200747091e-05 0.0000000000000000e+00  -9.4527500947975756e-04 -6.2882897268738501e-05 0.0000000000000000e+00  -1.4492062885046334e-03 -9.5051130182066511e-05 0.0000000000000000e+00  -1.9919952310545972e-03 -1.2795588605204203e-04 0.0000000000000000e+00  -2.0156204806616607e-03 -1.0473557398582911e-04 0.0000000000000000e+00  -1.9919912321886292e-03 -8.1671880494134076e-05 0.0000000000000000e+00  -1.2966342296369957e-03 -8.8641699696403932e-05 0.0000000000000000e+00  -6.3624402547591511e-04 -9.4145203786558863e-05 0.0000000000000000e+00  7.0462740693740663e-06 -9.8084897509195467e-05 0.0000000000000000e+00  6.5047397292458350e-04 -1.0051972417328039e-04 0.0000000000000000e+00  1.3112655821697896e-03 -1.0165948733409357e-04 0.0000000000000000e+00  2.0072579271704820e-03 -1.0187655044564228e-04 0.0000000000000000e+00  2.0312775998902761e-03 -1.2069873477029565e-04 0.0000000000000000e+00  2.0079148383244285e-03 -1.3925387678641018e-04 0.0000000000000000e+00  1.4610087757568945e-03 -1.0314929890867647e-04 0.0000000000000000e+00  9.5307398491328420e-04 -6.8102634062274344e-05 0.0000000000000000e+00  4.7034965146914247e-04 -3.3842815287923983e-05 0.0000000000000000e+00  -3.6090528780826023e-12 3.4433802237044012e-12 0.0000000000000000e+00  0.0000000000000000e+00 0.0000000000000000e+00 0.0000000000000000e+00  -4.5210004954135494e-04 -7.7931621276213068e-06 0.0000000000000000e+00  -9.1625496738786819e-04 -1.5075608494018584e-05 0.0000000000000000e+00  -1.4048851282109833e-03 -2.1287136354191391e-05 0.0000000000000000e+00  -1.9311404899309858e-03 -2.5767810529268813e-05 0.0000000000000000e+00  -1.9540357989392310e-03 -1.0637913332863915e-04 0.0000000000000000e+00  -1.9311004618869367e-03 -1.8713161029889944e-04 0.0000000000000000e+00  -1.2581670746085328e-03 -1.8586726051938698e-04 0.0000000000000000e+00  -6.1907342696691065e-04 -1.8647870308054009e-04 0.0000000000000000e+00  3.3337860493538398e-06 -1.8879667265792028e-04 0.0000000000000000e+00  6.2571154231648874e-04 -1.9283616385927459e-04 0.0000000000000000e+00  1.2647075225566530e-03 -1.9879261955180319e-04 0.0000000000000000e+00  1.9374473742666079e-03 -2.0704478233004990e-04 0.0000000000000000e+00  1.9601716345487080e-03 -1.2203050504855191e-04 0.0000000000000000e+00  1.9371965197667268e-03 -3.6832742232648982e-05 0.0000000000000000e+00  1.4095791703015730e-03 -2.9282798089575562e-05 0.0000000000000000e+00  9.1945176472893757e-04 -2.0262378321539393e-05 0.0000000000000000e+00  4.5371756313097302e-04 -1.0343522260215564e-05 0.0000000000000000e+00  0.0000000000000000e+00 0.0000000000000000e+00 0.0000000000000000e+00  0.0000000000000000e+00 0.0000000000000000e+00 0.0000000000000000e+00  -3.8945987114984121e-04 1.3656940269148592e-05 0.0000000000000000e+00  -7.8923008499849189e-04 2.8447343110388375e-05 0.0000000000000000e+00  -1.2098904361836208e-03 4.5552190526825003e-05 0.0000000000000000e+00  -1.6625534843464932e-03 6.6247754117299142e-05 0.0000000000000000e+00  -1.6821062458003866e-03 -1.0864811104089388e-04 0.0000000000000000e+00  -1.6626232286950178e-03 -2.8364206525268386e-04 0.0000000000000000e+00  -1.0845338752218194e-03 -2.7559879065234508e-04 0.0000000000000000e+00  -5.3524625053769244e-04 -2.7199468874336129e-04 0.0000000000000000e+00  -2.5634635320592715e-07 -2.7263102996671781e-04 0.0000000000000000e+00  5.3457487037374596e-04 -2.7749406974896467e-04 0.0000000000000000e+00  1.0833777478665544e-03 -2.8675359632842164e-04 0.0000000000000000e+00  1.6606300978286403e-03 -3.0076366437212676e-04 0.0000000000000000e+00  1.6794311499493471e-03 -1.2204114724783889e-04 0.0000000000000000e+00  1.6595680516550938e-03 5.6823176352065182e-05 0.0000000000000000e+00  1.2080225961520238e-03 3.8700073292895969e-05 0.0000000000000000e+00  7.8815739447778523e-04 2.3982812299343330e-05 0.0000000000000000e+00  3.8897411036030102e-04 1.1455824475522532e-05 0.0000000000000000e+00  0.0000000000000000e+00 0.0000000000000000e+00 0.0000000000000000e+00  0.0000000000000000e+00 0.0000000000000000e+00 0.0000000000000000e+00  -2.8552459754800711e-04 3.0573816867091405e-05 0.0000000000000000e+00  -5.7853784214541802e-04 6.2712964496520050e-05 0.0000000000000000e+00  -8.8670721194202906e-04 9.8027953375097186e-05 0.0000000000000000e+00  -1.2180491103587537e-03 1.3821998089676664e-04 0.0000000000000000e+00  -1.2323483897086610e-03 -1.1129831298560438e-04 0.0000000000000000e+00  -1.2183501339887060e-03 -3.6087383640551445e-04 0.0000000000000000e+00  -7.9587830918618531e-04 -3.4759332695032764e-04 0.0000000000000000e+00  -3.9431201632352051e-04 -3.4056697429884591e-04 0.0000000000000000e+00  -3.2039053176536423e-06 -3.3957691147512803e-04 0.0000000000000000e+00  3.8765173912026643e-04 -3.4458491751928304e-04 0.0000000000000000e+00  7.8845327672996137e-04 -3.5573228315469911e-04 0.0000000000000000e+00  1.2096200348809213e-03 -3.7333958544420596e-04 0.0000000000000000e+00  1.2226052878430984e-03 -1.2101419847978636e-04 0.0000000000000000e+00  1.2078347748518863e-03 1.3141005703337443e-04 0.0000000000000000e+00  8.7957981970069460e-04 9.3059334884325584e-05 0.0000000000000000e+00  5.7403538681260883e-04 5.9467097054810787e-05 0.0000000000000000e+00  2.8334692023621294e-04 2.8970913311795796e-05 0.0000000000000000e+00  0.0000000000000000e+00 0.0000000000000000e+00 0.0000000000000000e+00  0.0000000000000000e+00 0.0000000000000000e+00 0.0000000000000000e+00  -1.5157216177241447e-04 4.1230258162301327e-05 0.0000000000000000e+00  -3.0710568515514248e-04 8.4275593813936393e-05 0.0000000000000000e+00  -4.7065398170858061e-04 1.3099478050409517e-04 0.0000000000000000e+00  -6.4644302588507611e-04 1.8333400851765926e-04 0.0000000000000000e+00  -6.5424350992755200e-04 -1.1408505661025269e-04 0.0000000000000000e+00  -6.4706702985496700e-04 -4.1151676901819256e-04 0.0000000000000000e+00  -4.2378156769755382e-04 -3.9458940799678727e-04 0.0000000000000000e+00  -2.1162891684594135e-04 -3.8501260806564217e-04 0.0000000000000000e+00  -5.1349702110309866e-06 -3.8254948054186095e-04 0.0000000000000000e+00  2.0104952959276533e-04 -3.8713802887903228e-04 0.0000000000000000e+00  4.1226471419232423e-04 -3.9889161465149416e-04 0.0000000000000000e+00  6.3395734220516317e-04 -4.1809852521324604e-04 0.0000000000000000e+00  6.3992431009832922e-04 -1.1919866090997432e-04 0.00000000000000