<?xml version="1.0"?>
<VTKFile type="UnstructuredGrid"  version="0.1"  >
<UnstructuredGrid>
<Piece  NumberOfPoints="589" NumberOfCells="1080">
<Points>
<DataArray  type="Float64"  NumberOfComponents="3"  format="ascii">-9 0 0  -8 0 0  -7 0 0  -6 0 0  -5 0 0  -4 0 0  -3 0 0  -2 0 0  -1 0 0  0 0 0  1 0 0  2 0 0  3 0 0  4 0 0  5 0 0  6 0 0  7 0 0  8 0 0  9 0 0  -9 2 0  -7.999994066367567 2.000008188583249 0  -6.999987607682803 2.000015402708264 0  -5.999979387327772 2.000020853569825 0  -4.99996657436574 2.000024202534235 0  -3.999979541736244 2.000017982597791 0  -2.999992901155399 2.000012260214648 0  -1.999999553467613 2.000006961214777 0  -1.000000936409737 2.000002753003208 0  1.002392487321709e-06 2.000000833319473 0  1.00000328238025 2.000001903362921 0  2.000003049103534 2.000005621360754 0  2.999998430542765 2.000010118669967 0  3.999988966544914 2.000014683464376 0  4.99997553036107 2.000015731704457 0  5.999985584838795 2.000015483072985 0  6.999991556159154 2.000012101882522 0  7.999995994891535 2.000006593399703 0  9 2 0  -9.000000000009988 4 0  -7.999990232833423 4.000020275372397 0  -6.999982262037761 4.000037858754046 0  -5.999977145029749 4.000050114881172 0  -4.99997468941302 4.00005453646297 0  -3.999993221673113 4.000051509026265 0  -3.000005732577979 4.000035639409157 0  -2.000009238118563 4.000015061085389 0  -1.000004934404775 3.999998472906411 0  3.638163960696031e-06 3.999991583234096 0  1.000012470593225 3.999996203137644 0  2.000017684896235 4.000009281965696 0  3.000015434734695 4.000026921803241 0  4.000004586343982 4.000044222713426 0  4.999987921756601 4.000048577333157 0  5.999987502266587 4.000043496556638 0  6.999989242620388 4.000032713243463 0  7.999993724174764 4.000017526794321 0  9 4 0  -9 6 0  -7.999979213278984 6.000043131883307 0  -6.999965501189561 6.000081625431947 0  -5.999964257213895 6.00011071589763 0  -4.999977004729517 6.000125862690325 0  -4.000012665974102 6.000102216834645 0  -3.000028907493161 6.000053376322459 0  -2.00002252071725 6.000002303782519 0  -1.00000672669743 5.999974034448098 0  9.053543679469595e-06 5.999968164430151 0  1.000023041263118 5.999976731701717 0  2.000033594163127 6.000000743533833 0  3.000037574559238 6.000041306072347 0  4.000029584996036 6.000082972460006 0  5.000000422603865 6.000102556233089 0  5.999980780252602 6.000094321546419 0  6.999975963872586 6.000070938668217 0  7.999984275795311 6.000037822995466 0  9 6 0  -9 8 0  -7.999939889788282 8.000084549743288 0  -6.99989886487555 8.000163012992108 0  -5.999895401889886 8.000227099919821 0  -4.999945224543376 8.000263132115967 0  -4.000014192612132 8.00015498457296 0  -3.000000658520728 8.000028099373255 0  -1.999974118890876 7.999966877859195 0  -0.9999716789521893 7.999960691067288 0  1.285050536946843e-05 7.999959033669238 0  1.000000926625943 7.999952976826597 0  2.000004903281515 7.999977045467968 0  3.000033474942918 8.000018171158166 0  4.000042846267401 8.000121307888238 0  4.999977369198524 8.000237724509461 0  5.999914748482257 8.000205750320278 0  6.999910165432723 8.000148103556242 0  7.999945172862299 8.00007695466156 0  9 8 0  -9 10 0  -7.999824184409375 10.00015034624728 0  -6.99968194182696 10.00030195635869 0  -5.999613363745254 10.00045578621633 0  -4.999674176349649 10.00061211146685 0  -3.99978419618109 10.00026150612539 0  -2.999764938195971 9.999960188462204 0  -1.999808634550043 10.00001439537154 0  -0.9999049464075119 10.0000318659417 0  2.484093134360784e-05 10.00003611201488 0  0.9999557242342992 10.00003555189766 0  1.999864528537855 10.00003643102047 0  2.999783190127828 9.999931679950775 0  3.999791861583521 10.00020239043979 0  4.999672721130401 10.00055946822999 0  5.999616485498151 10.00041993065254 0  6.999685954941527 10.0002793109101 0  7.999826758728307 10.00013933074168 0  9 10 0  -9 12 0  -7.99957399749642 12.00021115740089 0  -6.99917005168045 12.00043213920978 0  -5.99881316554941 12.00067469761708 0  -4.998534175588349 12.00095525736639 0  -3.998591315108858 12.00031374266383 0  -2.998539569668927 11.999678021022 0  -1.998976251031361 11.99975807932782 0  -0.9994657293470454 11.99980338064039 0  2.383671332074557e-05 11.99981575453645 0  0.9995063397258874 11.99979415074501 0  1.998992978179174 11.9997313632578 0  2.998505601236824 11.99960907862574 0  3.998554938140091 12.00025626543589 0  4.998521645631323 12.00090822862146 0  5.998815013376705 12.00063857801217 0  6.999176213639832 12.00040804492427 0  7.999578477067321 12.00019916158136 0  9 12 0  -9 14 0  -7.999235190826734 14.00023275047321 0  -6.998469293683919 14.00047615341206 0  -5.997700306736925 14.0007418044845 0  -4.996923494772475 14.00104313849487 0  -3.996916916204553 14.00028978072615 0  -2.996911714296835 13.99952662367829 0  -1.997933419307808 13.9996409367882 0  -0.998943037692849 13.99970673347413 0  5.112688938197674e-05 13.99973142318877 0  0.9990409134709591 13.99971761984931 0  1.998018481903456 13.99966447725241 0  2.996977343207965 13.99956900529926 0  3.996966106871322 14.00027883403201 0  4.996962929087426 14.00098379522023 0  5.997741360794477 14.00070103180987 0  6.998501724687252 14.00045034410049 0  7.999252850831161 14.00022019449105 0  9 14 0  -9 16 0  -7.998900197340196 16.00021178674263 0  -6.997780008401041 16.00043128693347 0  -5.996617322581558 16.00066634685228 0  -4.995386264879638 16.00092491271622 0  -3.99534429509046 16.00027598332937 0  -2.995384247623777 15.99963038874557 0  -1.99694030161019 15.99971827868706 0  -0.9984361035627185 15.99977484940438 0  9.590064304271357e-05 15.99980136360667 0  0.9986249178563757 15.99979873722093 0  1.997120044976139 15.99976719662461 0  2.995548357095799 15.99970643106096 0  3.995501415985341 16.00029507711199 0  4.995541266541349 16.00088412571153 0  5.996738550334382 16.00063536370188 0  6.997863326905771 16.00041061770983 0  7.998942624011205 16.0002014729213 0  9 16 0  -9 18 0  -7.998646176739038 18.00015998286394 0  -6.997259691806171 18.00032423628491 0  -5.995806192147624 18.00049695185649 0  -4.994247848246319 18.0006821048629 0  -3.994183490121584 18.00027123164028 0  -2.994244978591804 17.99986080488892 0  -1.996189919477165 17.99992123727313 0  -0.9980412275926989 17.99996354145803 0  0.0001525436172025383 17.9999882105907 0  0.9983451431877499 17.99999584581895 0  1.996490373570942 17.9999871341866 0  2.994539881422748 17.99996293983014 0  3.994474078565339 18.00030799594479 0  4.99453622892255 18.00065184744317 0  5.996024151669309 18.00047374355876 0  6.997405839382892 18.00030855480795 0  7.998719512683815 18.000152087379 0  9 18 0  -9 20 0  -7.998522273641993 20.00009108706682 0  -6.997006392865843 20.00018334801196 0  -5.995412731727603 20.00027782935486 0  -4.993698698326797 20.00037530489658 0  -3.993624915625543 20.00027012846881 0  -2.993696831871319 20.00016527167167 0  -1.99581599421921 20.00019695599775 0  -0.9978276031555349 20.00022302758107 0  0.0002137970248739111 20.00024344473594 0  0.99825561401417 20.00025858325162 0  1.996245309914951 20.00026922374398 0  2.994128501319814 20.00027658691693 0  3.994055709219387 20.00031513194867 0  4.994127352067346 20.00035266109037 0  5.995733041727586 20.00026049136932 0  6.997219401833962 20.00017161999519 0  7.998628625170153 20.00008517306141 0  8.999999999974536 20.00000000000235 0  -9 22 0  -7.998550502820638 22.00001748395833 0  -6.997063187104976 22.00003357213249 0  -5.995499045423513 22.0000467256896 0  -4.993816681393908 22.00005511599785 0  -3.993744509112733 22.00027256627104 0  -2.993815634311645 22.00049017978064 0  -1.995874209367524 22.00049520576998 0  -0.9978269360185975 22.00050521786967 0  0.0002733565100882895 22.00051987839691 0  0.9983754316989745 22.00053938912115 0  1.996428120222757 22.00056448158723 0  2.994378795762343 22.00059642759167 0  3.994309446746859 22.00031795636755 0  4.994379699799667 22.00003859707143 0  5.995917663407978 22.0000340419384 0  6.997340565324711 22.00002497911475 0  7.998688687804011 22.00001314708975 0  9 22 0  -9 24 0  -7.998729516422435 23.99994946181891 0  -6.997426247668909 23.99989552972569 0  -5.996056525606249 23.99983466411931 0  -4.994584882949065 23.99976303563395 0  -3.994522998193456 24.00027725471919 0  -2.994584686232318 24.00079142593 0  -1.996357665889851 24.00077343442025 0  -0.9980392025893475 24.00076874063583 0  0.0003258200583591899 24.00077683516107 0  0.9986937246918217 24.00079778463899 0  1.99702090887144 24.0008322284839 0  2.995262714409588 24.00088138354234 0  3.995204929516957 24.00031671956123 0  4.995264964541114 23.99975122271973 0  5.996560997210992 23.99982562030412 0  6.99775993599606 23.99988941249865 0  7.998895578546515 23.99994637662229 0  9 24 0  -9 26 0  -7.999039128221547 25.99989502274876 0  -6.998054034642601 25.9997852265825 0  -5.997019930891026 25.99966564601773 0  -4.995910813680408 25.99953102945273 0  -3.995865647879557 26.0002830755068 0  -2.995911307805938 26.00103493364106 0  -1.997208657280754 26.00099830502449 0  -0.998438504390589 26.00098094078567 0  0.0003668326660929597 26.00098219873371 0  0.9991758570321341 26.00100202240961 0  1.997957152225089 26.00104093944168 0  2.996678644248127 26.00110006397582 0  3.996638437338138 26.00031194972657 0  4.996681801026972 25.99952314035459 0  5.997591158277265 25.99965963264116 0  6.99843155064961 25.99978117068457 0  7.999226901267924 25.9998929803969 0  9 26 0  -9 28 0  -7.999445000574053 27.99985986859134 0  -6.998876713949058 27.99971406301823 0  -5.998281594398811 27.9995567640482 0  -4.99764546267013 27.99938186622189 0  -3.997621159694081 28.00028921098377 0  -2.997646243945124 28.00119628369148 0  -1.998331379302656 28.00114594630672 0  -0.9989793189837416 28.00111847522457 0  0.0003931777439209104 28.00111311703842 0  0.9997698516041535 28.00112969654705 0  1.999134519956283 28.0011686213834 0  2.998470730744632 28.00123088234703 0  3.998452061478067 28.00030446184706 0  4.998474588087966 27.99937753202994 0  5.998895555993708 27.99955348822795 0  6.999282307324387 27.99971186
[...]
<PointData  Vectors="f_42"> 
<DataArray  type="Float64"  Name="f_42"  NumberOfComponents="3" format="ascii">0.0000000000000000e+00 0.0000000000000000e+00 0.0000000000000000e+00  0.0000000000000000e+00 0.0000000000000000e+00 0.0000000000000000e+00  0.0000000000000000e+00 0.0000000000000000e+00 0.0000000000000000e+00  0.0000000000000000e+00 0.0000000000000000e+00 0.0000000000000000e+00  0.0000000000000000e+00 0.0000000000000000e+00 0.0000000000000000e+00  0.0000000000000000e+00 0.0000000000000000e+00 0.0000000000000000e+00  0.0000000000000000e+00 0.0000000000000000e+00 0.0000000000000000e+00  0.0000000000000000e+00 0.0000000000000000e+00 0.0000000000000000e+00  0.0000000000000000e+00 0.0000000000000000e+00 0.0000000000000000e+00  0.0000000000000000e+00 0.0000000000000000e+00 0.0000000000000000e+00  0.0000000000000000e+00 0.0000000000000000e+00 0.0000000000000000e+00  0.0000000000000000e+00 0.0000000000000000e+00 0.0000000000000000e+00  0.0000000000000000e+00 0.0000000000000000e+00 0.0000000000000000e+00  0.0000000000000000e+00 0.0000000000000000e+00 0.0000000000000000e+00  0.0000000000000000e+00 0.0000000000000000e+00 0.0000000000000000e+00  0.0000000000000000e+00 0.0000000000000000e+00 0.0000000000000000e+00  0.0000000000000000e+00 0.0000000000000000e+00 0.0000000000000000e+00  0.0000000000000000e+00 0.0000000000000000e+00 0.0000000000000000e+00  0.0000000000000000e+00 0.0000000000000000e+00 0.0000000000000000e+00  0.0000000000000000e+00 0.0000000000000000e+00 0.0000000000000000e+00  5.9336324267503559e-06 8.1885832498218714e-06 0.0000000000000000e+00  1.2392317205973434e-05 1.5402708264344071e-05 0.0000000000000000e+00  2.0612672228674762e-05 2.0853569825844897e-05 0.0000000000000000e+00  3.3425634249971641e-05 2.4202534232699392e-05 0.0000000000000000e+00  2.0458263757121924e-05 1.7982597791770263e-05 0.0000000000000000e+00  7.0988445976916579e-06 1.2260214649673633e-05 0.0000000000000000e+00  4.4653238795219309e-07 6.9612147759695777e-06 0.0000000000000000e+00  -9.3640973816520553e-07 2.7530032094476974e-06 0.0000000000000000e+00  1.0023924873217093e-06 8.3331947076048866e-07 0.0000000000000000e+00  3.2823802507789097e-06 1.9033629230094011e-06 0.0000000000000000e+00  3.0491035344233209e-06 5.6213607586929393e-06 0.0000000000000000e+00  -1.5694572335635676e-06 1.0118669965094956e-05 0.0000000000000000e+00  -1.1033455083805505e-05 1.4683464377030507e-05 0.0000000000000000e+00  -2.4469638932059159e-05 1.5731704456612776e-05 0.0000000000000000e+00  -1.4415161206577979e-05 1.5483072985159411e-05 0.0000000000000000e+00  -8.4438408518772132e-06 1.2101882521287775e-05 0.0000000000000000e+00  -4.0051084772808822e-06 6.5933997034761813e-06 0.0000000000000000e+00  0.0000000000000000e+00 0.0000000000000000e+00 0.0000000000000000e+00  -9.9873901165806172e-12 0.0000000000000000e+00 0.0000000000000000e+00  9.7671665834502114e-06 2.0275372395538829e-05 0.0000000000000000e+00  1.7737962244158621e-05 3.7858754044948757e-05 0.0000000000000000e+00  2.2854970249455735e-05 5.0114881171461645e-05 0.0000000000000000e+00  2.5310586974327528e-05 5.4536462972654552e-05 0.0000000000000000e+00  6.7783268870017836e-06 5.1509026265470753e-05 0.0000000000000000e+00  -5.7325779805682296e-06 3.5639409158823842e-05 0.0000000000000000e+00  -9.2381185633436559e-06 1.5061085386060078e-05 0.0000000000000000e+00  -4.9344047751111889e-06 -1.5270935898521070e-06 0.0000000000000000e+00  3.6381639606960310e-06 -8.4167659026927321e-06 0.0000000000000000e+00  1.2470593224765601e-05 -3.7968623485289435e-06 0.0000000000000000e+00  1.7684896234784007e-05 9.2819656957809059e-06 0.0000000000000000e+00  1.5434734696109961e-05 2.6921803239528810e-05 0.0000000000000000e+00  4.5863439801372790e-06 4.4222713427159042e-05 0.0000000000000000e+00  -1.2078243405634969e-05 4.8577333158461938e-05 0.0000000000000000e+00  -1.2497733420392061e-05 4.3496556641518366e-05 0.0000000000000000e+00  -1.0757379607693423e-05 3.2713243463993564e-05 0.0000000000000000e+00  -6.2758252278449851e-06 1.7526794320254443e-05 0.0000000000000000e+00  0.0000000000000000e+00 0.0000000000000000e+00 0.0000000000000000e+00  0.0000000000000000e+00 0.0000000000000000e+00 0.0000000000000000e+00  2.0786720999165282e-05 4.3131883300979239e-05 0.0000000000000000e+00  3.4498810441169775e-05 8.1625431949879557e-05 0.0000000000000000e+00  3.5742786095193812e-05 1.1071589763470210e-04 0.0000000000000000e+00  2.2995270484238834e-05 1.2586269033036210e-04 0.0000000000000000e+00  -1.2665974102184536e-05 1.0221683464981122e-04 0.0000000000000000e+00  -2.8907493159556428e-05 5.3376322460725370e-05 0.0000000000000000e+00  -2.2520717249599521e-05 2.3037825119383728e-06 0.0000000000000000e+00  -6.7266974304281977e-06 -2.5965551901751188e-05 0.0000000000000000e+00  9.0535436794695946e-06 -3.1835569852299492e-05 0.0000000000000000e+00  2.3041263118146484e-05 -2.3268298279468133e-05 0.0000000000000000e+00  3.3594163128839982e-05 7.4353382917150835e-07 0.0000000000000000e+00  3.7574559237225237e-05 4.1306072350399828e-05 0.0000000000000000e+00  2.9584996031481560e-05 8.2972460007478755e-05 0.0000000000000000e+00  4.2260386869027249e-07 1.0255623308990472e-04 0.0000000000000000e+00  -1.9219747404727596e-05 9.4321546420143636e-05 0.0000000000000000e+00  -2.4036127416946279e-05 7.0938668215949496e-05 0.0000000000000000e+00  -1.5724204687976160e-05 3.7822995464761001e-05 0.0000000000000000e+00  0.0000000000000000e+00 0.0000000000000000e+00 0.0000000000000000e+00  0.0000000000000000e+00 0.0000000000000000e+00 0.0000000000000000e+00  6.0110211706444719e-05 8.4549743289109305e-05 0.0000000000000000e+00  1.0113512444847994e-04 1.6301299210729538e-04 0.0000000000000000e+00  1.0459811011428435e-04 2.2709991982081346e-04 0.0000000000000000e+00  5.4775456623457100e-05 2.6313211597497069e-04 0.0000000000000000e+00  -1.4192612131573481e-05 1.5498457296716199e-04 0.0000000000000000e+00  -6.5852072849953169e-07 2.8099373253132293e-05 0.0000000000000000e+00  2.5881109124336979e-05 -3.3122140804153566e-05 0.0000000000000000e+00  2.8321047810014240e-05 -3.9308932712280237e-05 0.0000000000000000e+00  1.2850505369468427e-05 -4.0966330767314302e-05 0.0000000000000000e+00  9.2662594383504217e-07 -4.7023173420066874e-05 0.0000000000000000e+00  4.9032815156100434e-06 -2.2954532045279796e-05 0.0000000000000000e+00  3.3474942916467343e-05 1.8171158171905836e-05 0.0000000000000000e+00  4.2846267402012306e-05 1.2130788824041031e-04 0.0000000000000000e+00  -2.2630801486843682e-05 2.3772450945383001e-04 0.0000000000000000e+00  -8.5251517744995613e-05 2.0575032027960664e-04 0.0000000000000000e+00  -8.9834567274382546e-05 1.4810355623417955e-04 0.0000000000000000e+00  -5.4827137706812264e-05 7.6954661562443115e-05 0.0000000000000000e+00  0.0000000000000000e+00 0.0000000000000000e+00 0.0000000000000000e+00  0.0000000000000000e+00 0.0000000000000000e+00 0.0000000000000000e+00  1.7581559062580538e-04 1.5034624728442497e-04 0.0000000000000000e+00  3.1805817304516302e-04 3.0195635870038318e-04 0.0000000000000000e+00  3.8663625474274696e-04 4.5578621633054697e-04 0.0000000000000000e+00  3.2582365034570599e-04 6.1211146685355444e-04 0.0000000000000000e+00  2.1580381891390848e-04 2.6150612538454341e-04 0.0000000000000000e+00  2.3506180402759765e-04 -3.9811537784340750e-05 0.0000000000000000e+00  1.9136544995288529e-04 1.4395371551775416e-05 0.0000000000000000e+00  9.5053592487767316e-05 3.1865941690069592e-05 0.0000000000000000e+00  2.4840931343607835e-05 3.6112014871889814e-05 0.0000000000000000e+00  -4.4275765698465094e-05 3.5551897664995415e-05 0.0000000000000000e+00  -1.3547146214191018e-04 3.6431020464758717e-05 0.0000000000000000e+00  -2.1680987217491206e-04 -6.8320049229999278e-05 0.0000000000000000e+00  -2.0813841647583016e-04 2.0239043978122545e-04 0.0000000000000000e+00  -3.2727886959457730e-04 5.5946822998180696e-04 0.0000000000000000e+00  -3.8351450183969670e-04 4.1993065253242685e-04 0.0000000000000000e+00  -3.1404505847561513e-04 2.7931091009575061e-04 0.0000000000000000e+00  -1.7324127169798971e-04 1.3933074167866009e-04 0.0000000000000000e+00  0.0000000000000000e+00 0.0000000000000000e+00 0.0000000000000000e+00  0.0000000000000000e+00 0.0000000000000000e+00 0.0000000000000000e+00  4.2600250358017678e-04 2.1115740089321295e-04 0.0000000000000000e+00  8.2994831955096268e-04 4.3213920978031335e-04 0.0000000000000000e+00  1.1868344505871272e-03 6.7469761709705351e-04 0.0000000000000000e+00  1.4658244116558289e-03 9.5525736639001766e-04 0.0000000000000000e+00  1.4086848911414528e-03 3.1374266383002713e-04 0.0000000000000000e+00  1.4604303310722575e-03 -3.2197897800309442e-04 0.0000000000000000e+00  1.0237489686401398e-03 -2.4192067218319118e-04 0.0000000000000000e+00  5.3427065295583046e-04 -1.9661935961542041e-04 0.0000000000000000e+00  2.3836713320745570e-05 -1.8424546354433463e-04 0.0000000000000000e+00  -4.9366027411420707e-04 -2.0584925498770714e-04 0.0000000000000000e+00  -1.0070218208278652e-03 -2.6863674220355973e-04 0.0000000000000000e+00  -1.4943987631765856e-03 -3.9092137428514435e-04 0.0000000000000000e+00  -1.4450618599054768e-03 2.5626543589820418e-04 0.0000000000000000e+00  -1.4783543686845860e-03 9.0822862146675812e-04 0.0000000000000000e+00  -1.1849866232963072e-03 6.3857801218099861e-04 0.0000000000000000e+00  -8.2378636016401023e-04 4.0804492427332241e-04 0.0000000000000000e+00  -4.2152293268476657e-04 1.9916158136761477e-04 0.0000000000000000e+00  0.0000000000000000e+00 0.0000000000000000e+00 0.0000000000000000e+00  0.0000000000000000e+00 0.0000000000000000e+00 0.0000000000000000e+00  7.6480917325305435e-04 2.3275047320548233e-04 0.0000000000000000e+00  1.5307063160785491e-03 4.7615341205290454e-04 0.0000000000000000e+00  2.2996932630735146e-03 7.4180448449779235e-04 0.0000000000000000e+00  3.0765052275198261e-03 1.0431384948711643e-03 0.0000000000000000e+00  3.0830837954459915e-03 2.8978072615508036e-04 0.0000000000000000e+00  3.0882857031667202e-03 -4.7337632171252404e-04 0.0000000000000000e+00  2.0665806921936597e-03 -3.5906321181752772e-04 0.0000000000000000e+00  1.0569623071527332e-03 -2.9326652588222794e-04 0.0000000000000000e+00  5.1126889381976741e-05 -2.6857681123817909e-04 0.0000000000000000e+00  -9.5908652904219563e-04 -2.8238015068379827e-04 0.0000000000000000e+00  -1.9815180965407075e-03 -3.3552274759070911e-04 0.0000000000000000e+00  -3.0226567920344388e-03 -4.3099470075519614e-04 0.0000000000000000e+00  -3.0338931286836607e-03 2.7883403199727174e-04 0.0000000000000000e+00  -3.0370709125692656e-03 9.8379522023562529e-04 0.0000000000000000e+00  -2.2586392055226876e-03 7.0103180985742815e-04 0.0000000000000000e+00  -1.4982753127477746e-03 4.5034410047401044e-04 0.0000000000000000e+00  -7.4714916883645319e-04 2.2019449104532387e-04 0.0000000000000000e+00  0.0000000000000000e+00 0.0000000000000000e+00 0.0000000000000000e+00  0.0000000000000000e+00 0.0000000000000000e+00 0.0000000000000000e+00  1.0998026598195137e-03 2.1178674262951983e-04 0.0000000000000000e+00  2.2199915989564258e-03 4.3128693346868914e-04 0.0000000000000000e+00  3.3826774184435048e-03 6.6634685228078052e-04 0.0000000000000000e+00  4.6137351203602286e-03 9.2491271621846080e-04 0.0000000000000000e+00  4.6557049095398558e-03 2.7598332939456782e-04 0.0000000000000000e+00  4.6157523762233935e-03 -3.6961125442240816e-04 0.0000000000000000e+00  3.0596983898084434e-03 -2.8172131294294041e-04 0.0000000000000000e+00  1.5638964372807786e-03 -2.2515059562777797e-04 0.0000000000000000e+00  9.5900643042713573e-05 -1.9863639333255278e-04 0.0000000000000000e+00  -1.3750821436255866e-03 -2.0126277906994960e-04 0.0000000000000000e+00  -2.8799550238632534e-03 -2.3280337539457633e-04 0.0000000000000000e+00  -4.4516429041954499e-03 -2.9356893904058034e-04 0.0000000000000000e+00  -4.4985840146595886e-03 2.9507711200602504e-04 0.0000000000000000e+00  -4.4587334586470989e-03 8.8412571152538617e-04 0.0000000000000000e+00  -3.2614496656136424e-03 6.3536370189377976e-04 0.0000000000000000e+00  -2.1366730942314004e-03 4.1061770983159200e-04 0.0000000000000000e+00  -1.0573759887919296e-03 2.0147292129582924e-04 0.0000000000000000e+00  0.0000000000000000e+00 0.0000000000000000e+00 0.0000000000000000e+00  0.0000000000000000e+00 0.0000000000000000e+00 0.0000000000000000e+00  1.3538232609741027e-03 1.5998286393626668e-04 0.0000000000000000e+00  2.7403081938297239e-03 3.2423628491169503e-04 0.0000000000000000e+00  4.1938078523776623e-03 4.9695185650044265e-04 0.0000000000000000e+00  5.7521517536799089e-03 6.8210486293199214e-04 0.0000000000000000e+00  5.8165098784154056e-03 2.7123164026703100e-04 0.0000000000000000e+00  5.7550214081959466e-03 -1.3919511106758996e-04 0.0000000000000000e+00  3.8100805228362569e-03 -7.8762726864266939e-05 0.0000000000000000e+00  1.9587724072983501e-03 -3.6458541969790805e-05 0.0000000000000000e+00  1.5254361720253826e-04 -1.1789409293019270e-05 0.0000000000000000e+00  -1.6548568122491778e-03 -4.1541810529390464e-06 0.0000000000000000e+00  -3.5096264290606790e-03 -1.2865813427313711e-05 0.0000000000000000e+00  -5.4601185772512849e-03 -3.7060169877784583e-05 0.0000000000000000e+00  -5.5259214346575752e-03 3.0799594479054369e-04 0.0000000000000000e+00  -5.4637710774486387e-03 6.5184744314981903e-04 0.0000000000000000e+00  -3.9758483306852757e-03 4.7374355874373546e-04 0.0000000000000000e+00  -2.5941606171030040e-03 3.0855480795834129e-04 0.0000000000000000e+00  -1.2804873161816979e-03 1.5208737900829724e-04 0.0000000000000000e+00  0.0000000000000000e+00 0.0000000000000000e+00 0.0000000000000000e+00  0.0000000000000000e+00 0.0000000000000000e+00 0.0000000000000000e+00  1.4777263580176188e-03 9.1087066818870062e-05 0.0000000000000000e+00  2.9936071341583560e-03 1.8334801196110488e-04 0.0000000000000000e+00  4.5872682723937554e-03 2.7782935487549547e-04 0.0000000000000000e+00  6.3013016732014100e-03 3.7530489658818984e-04 0.0000000000000000e+00  6.3750843744589999e-03 2.7012846882174332e-04 0.0000000000000000e+00  6.3031681286781042e-03 1.6527167166190400e-04 0.0000000000000000e+00  4.1840057807899216e-03 1.9695599774858632e-04 0.0000000000000000e+00  2.1723968444647460e-03 2.2302758106463585e-04 0.0000000000000000e+00  2.1379702487391106e-04 2.4344473596608289e-04 0.0000000000000000e+00  -1.7443859858292973e-03 2.5858325162917843e-04 0.0000000000000000e+00  -3.7546900850455619e-03 2.6922374397344017e-04 0.0000000000000000e+00  -5.8714986801834367e-03 2.7658691689693294e-04 0.0000000000000000e+00  -5.9442907806085653e-03 3.1513194865197074e-04 0.0000000000000000e+00  -5.8726479326551917e-03 3.5266109038364685e-04 0.0000000000000000e+00  -4.2669582724130031e-03 2.6049136929171636e-04 0.0000000000000000e+00  -2.7805981660409857e-03 1.7161999518647920e-04 0.0000000000000000e+00  -1.3713748298630896e-03 8.5173061384845875e-05 0.0000000000000000e+00  -2.5461021138636618e-11 2.3605853567169593e-12 0.0000000000000000e+00  0.0000000000000000e+00 0.0000000000000000e+00 0.0000000000000000e+00  1.4494971793647246e-03 1.7483958333607025e-05 0.0000000000000000e+00  2.9368128950188728e-03 3.3572132497266383e-05 0.0000000000000000e+00  4.5009545764830719e-03 4.6725689601937854e-05 0.0000000000000000e+00  6.1833186060956070e-03 5.5115997846541991e-05 0.0000000000000000e+00  6.2554908872649610e-03 2.7256627106669439e-04 0.0000000000000000e+00  6.1843656883540689e-03 4.9017978064982331e-04 0.0000000000000000e+00  4.1257906324804819e-03 4.9520577000367950e-04 0.0000000000000000e+00  2.1730639814016403e-03 5.0521786968177936e-04 0.0000000000000000e+00  2.7335651008828952e-04 5.1987839690502966e-04 0.0000000000000000e+00  -1.6245683010253265e-03 5.3938912112009847e-04 0.0000000000000000e+00  -3.5718797772439454e-03 5.6448158721036739e-04 0.0000000000000000e+00  -5.6212042376576907e-03 5.9642759164814428e-04 0.0000000000000000e+00  -5.6905532531334162e-03 3.1795636755805543e-04 0.0000000000000000e+00  -5.6203002003333939e-03 3.8597071440569440e-05 0.0000000000000000e+00  -4.0823365920260373e-03 3.4041938405402255e-05 0.0000000000000000e+00  -2.6594346752931881e-03 2.4979114760842650e-05 0.0000000000000000e+00  -1.3113121959911094e-03 1.3147089763706958e-05 0.0000000000000000e+00  0.0000000000000000e+00 0.0000000000000000e+00 0.0000000000000000e+00  0.0000000000000000e+00 0.0000000000000000e+00 0.0000000000000000e+00  1.2704835775790982e-03 -5.0538181091377364e-05 0.0000000000000000e+00  2.5737523310909332e-03 -1.0447027428948225e-04 0.0000000000000000e+00  3.9434743937439955e-03 -1.6533588067908225e-04 0.0000000000000000e+00  5.4151170509430238e-03 -2.3696436607018579e-04 0.0000000000000000e+00  5.4770018065433135e-03 2.7725471920572330e-04 0.0000000000000000e+00  5.4153137676815994e-03 7.9142592998296011e-04 0.0000000000000000e+00  3.6423341101504791e-03 7.7343442023588269e-04 0.0000000000000000e+00  1.9607974106521063e-03 7.6874063581702161e-04 0.0000000000000000e+00  3.2582005835918992e-04 7.7683516107444385e-04 0.0000000000000000e+00  -1.3062753081802716e-03 7.9778463898217268e-04 0.0000000000000000e+00  -2.9790911285553132e-03 8.3222848392527850e-04 0.0000000000000000e+00  -4.7372855904135105e-03 8.8138354233923181e-04 0.0000000000000000e+00  -4.7950704830532912e-03 3.1671956123971093e-04 0.0000000000000000e+00  -4.7350354588870155e-03 -2.4877728028627227e-04 0.0000000000000000e+00  -3.4390027890080044e-03 -1.7437969585938959e-04 0.0000000000000000e+00  -2.2400640039449715e-03 -1.1058750136382139e-04 0.0000000000000000e+00  -1.1044214534798695e-03 -5.3623377713799777e-05 0.0000000000000000e+00  0.0000000000000000e+00 0.0000000000000000e+00 0.0000000000000000e+00  0.0000000000000000e+00 0.0000000000000000e+00 0.0000000000000000e+00  9.6087177844384841e-04 -1.0497725122766401e-04 0.0000000000000000e+00  1.9459653573986808e-03 -2.1477341750327289e-04 0.0000000000000000e+00  2.9800691089759126e-03 -3.3435398226590654e-04 0.0000000000000000e+00  4.0891863195985471e-03 -4.6897054727349554e-04 0.0000000000000000e+00  4.1343521204390719e-03 2.8307550680224214e-04 0.0000000000000000e+00  4.0886921940642452e-03 1.0349336410704893e-03 0.0000000000000000e+00  2.7913427192437098e-03 9.9830502449671879e-04 0.0000000000000000e+00  1.5614956094118877e-03 9.8094078569040599e-04 0.0000000000000000e+00  3.6683266609295975e-04 9.8219873371676149e-04 0.0000000000000000e+00  -8.2414296786527679e-04 1.0020224096231789e-03 0.0000000000000000e+00  -2.0428477749105003e-03 1.0409394416504539e-03 0.0000000000000000e+00  -3.3213557518746856e-03 1.1000639758253069e-03 0.0000000000000000e+00  -3.3615626618589203e-03 3.1194972657338068e-04 0.0000000000000000e+00  -3.3181989730332105e-03 -4.7685964539159157e-04 0.0000000000000000e+00  -2.4088417227368557e-03 -3.4036735886558498e-04 0.0000000000000000e+00  -1.5684493503914211e-03 -2.1882931541891397e-04 0.0000000000000000e+00  -7.7309873207251790e-04 -1.0701960307086512e-04 0.0000000000000000e+00  0.0000000000000000e+00 0.0000000000000000e+00 0.0000000000000000e+00  0.0000000000000000e+00 0.0000000000000000e+00 0.0000000000000000e+00  5.5499942594707777e-04 -1.4013140865371240e-04 0.0000000000000000e+00  1.1232860509412129e-03 -2.8593698176974171e-04 0.0000000000000000e+00  1.7184056011855979e-03 -4.4323595178992074e-04 0.0000000000000000e+00  2.3545373298695885e-03 -6.1813377812730108e-04 0.0000000000000000e+00  2.3788403059135620e-03 2.8921098375709519e-04 0.0000000000000000e+00  2.3537560548773516e-03 1.1962836914524689e-03 0.0000000000000000e+00  1.6686206973424138e-03 1.1459463066810390e-03 0.0000000000000000e+00  1.0206810162580592e-03 1.1184752245664141e-03 0.0000000000000000e+00  3.9317774392091042e-04 1.1131170384000176e-03 0.0000000000000000e+00  -2.3014839584688013e-04 1.1296965470355615e-03 0.0000000000000000e+00  -8.6548004371530705e-04 1.1686213834008574e-03 0.0000000000000000e+00  -1.5292692553644089e-03 1.2308823470176802e-03 0.0000000000000000e+00  -1.5479385219345600e-03 3.0446184705847605e-04 0.0000000000000000e+00  -1.5254119120379332e-03 -6.2246797006861748e-04 0.0000000000000000e+00  -1.1044440062927764e-03 -4.4651177203687212e-04 0.0000