<?xml version="1.0"?>
<VTKFile type="UnstructuredGrid"  version="0.1"  >
<UnstructuredGrid>
<Piece  NumberOfPoints="589" NumberOfCells="1080">
<Points>
<DataArray  type="Float64"  NumberOfComponents="3"  format="ascii">-9 0 0  -8 0 0  -7 0 0  -6 0 0  -5 0 0  -4 0 0  -3 0 0  -2 0 0  -1 0 0  0 0 0  1 0 0  2 0 0  3 0 0  4 0 0  5 0 0  6 0 0  7 0 0  8 0 0  9 0 0  -9 2 0  -7.999998152861997 2.000002259938069 0  -6.999996198898558 2.000004252001382 0  -5.999993843060698 2.000005759615199 0  -4.999990372323937 2.000006688728686 0  -3.999993974573162 2.000004927866141 0  -2.999997614911528 2.000003321102102 0  -1.999999404351807 2.000001834087679 0  -0.9999997360332865 2.000000634942904 0  8.765559098879535e-07 2.000000029630637 0  1.000001663642849 2.000000181146423 0  2.000001917548384 2.000000964551676 0  3.000001218006193 2.000001846356695 0  3.999999571231511 2.000002506372982 0  4.999997381766066 2.00000187101138 0  5.999998819536944 2.000002315489193 0  6.999999427786965 2.000001992270679 0  7.999999748222959 2.000001133983287 0  9 2 0  -9.000000000004983 4 0  -7.999996733014306 4.000005591402394 0  -6.999994005290644 4.000010441822284 0  -5.999992145713906 4.000013833243448 0  -4.999991128315622 4.000015097539858 0  -3.999996138751607 4.000014023792839 0  -2.999999445521999 4.000009544851288 0  -2.00000026935265 4.000003823773256 0  -0.9999989459157227 3.999999174164319 0  3.55188354562696e-06 3.99999709149861 0  1.00000617424814 3.999997939595436 0  2.000007957591662 4.000000826723017 0  3.000007966801828 4.000004657343902 0  4.000005938212642 4.000008066233536 0  5.000002477234834 4.000007699146233 0  6.000000957161641 4.000007701768252 0  7.000000006833273 4.000006124825737 0  7.99999977108177 4.000003370759956 0  9 4 0  -9 6 0  -7.999993156053525 6.000011886919411 0  -6.999988339084855 6.000022467749583 0  -5.999987079657942 6.000030415473296 0  -4.999989778085489 6.000034503731235 0  -3.999999323696793 6.000027617668901 0  -3.000003485574923 6.000013940838252 0  -2.00000132059865 5.999999771194838 0  -0.9999966840524901 5.999992068637489 0  7.762551863113382e-06 5.999990359877946 0  1.00001159051867 5.999992225870408 0  2.000014515121013 5.999997735976588 0  3.000015894461051 6.000007105637392 0  4.000014405256836 6.000016439292864 0  5.000007641517051 6.000020019422112 0  6.000000815784378 6.000019406380749 0  6.999997727548008 6.000014965945372 0  7.999997935238207 6.000008074373771 0  9 6 0  -9 8 0  -7.999981470843592 8.00002340735068 0  -6.999968442499839 8.00004502668469 0  -5.999966182100911 8.000062436108367 0  -4.999979027044132 8.000071661952031 0  -3.999997907126287 8.000040985004368 0  -2.999992952260143 8.000005336584586 0  -1.999984625434073 7.999988801483294 0  -0.9999834669223691 7.999987985870932 0  1.239323900743317e-05 7.999987909442702 0  1.00000900737412 7.99998620975834 0  2.000009796205352 7.999991501566933 0  3.00001708595719 8.000000572834002 0  4.000019727695356 8.000025035443249 0  5.0000037375229 8.000052910553929 0  5.999985724035803 8.000046421186857 0  6.999982264189421 8.0000336120435 0  7.999988670834751 8.000017509496228 0  9 8 0  -9 10 0  -7.99994777940101 10.00004208220292 0  -6.999905470905017 10.00008442889962 0  -5.999884860556485 10.00012719702826 0  -4.999902254331563 10.00017029710965 0  -3.999933040248281 10.00006909239613 0  -2.999925402082754 9.999982787584639 0  -1.999936467327053 10.0000010762909 0  -0.9999632438879817 10.00000700711028 0  1.80007454409234e-05 10.00000845214947 0  0.9999999697592061 10.00000801169164 0  1.999976598975841 10.0000072396786 0  2.999955207711482 9.999978849884817 0  3.999957390414657 10.0000446170337 0  4.999928505207861 10.00013217259421 0  5.999912413065517 10.00009871843443 0  6.999927332092258 10.00006543353589 0  7.99995971466603 10.00003257348663 0  9 10 0  -9 12 0  -7.999874425231816 12.00005970433323 0  -6.999755683416111 12.00012215433519 0  -5.999651477592874 12.00019064586858 0  -4.999571270486487 12.00026980991743 0  -3.999587338917239 12.00008174471317 0  -2.999570275932502 11.99989518902444 0  -1.999682001896386 11.9999217580906 0  -0.9998106639423648 11.99993823074493 0  5.322492181931135e-05 11.9999452533868 0  0.9999135873065114 11.999942759405 0  1.999773143713258 11.99992904504577 0  2.999636895657204 11.9998995224337 0  3.999649020414002 12.0000569582595 0  4.999642674945724 12.00021543439246 0  5.999715036144944 12.00015034578592 0  6.999802535495313 12.0000955599726 0  7.999899141392826 12.00004649386159 0  9 12 0  -9 14 0  -7.999773708836276 14.00006634994013 0  -6.999547703219577 14.00013572431954 0  -5.999322016375831 14.0002114202211 0  -4.999095943444257 14.00029726906354 0  -3.999093824414385 14.00007243922282 0  -2.999089860731879 13.99984455523259 0  -1.999359849856817 13.99988283645882 0  -0.9996283197202311 13.99990726430713 0  0.0001025473987143915 13.99992012912131 0  0.9998304511394358 13.99992239725853 0  1.99955296163037 13.99991409499541 0  2.999267768225939 13.99989467414709 0  3.999264143681476 14.00006156006019 0  4.999265704301047 14.00022697176312 0  5.999457061216191 14.00016077656781 0  6.999641286815051 14.00010281606206 0  7.999821541631302 14.00005012970581 0  9 14 0  -9 16 0  -7.999671807660611 16.00006090206276 0  -6.999338378016796 16.00012401708011 0  -5.998993987525169 16.00019159593878 0  -4.998631868321847 16.00026592091283 0  -3.998619738314568 16.00006620221808 0  -2.998628923114849 15.9998672317813 0  -1.999043878760489 15.99989935816833 0  -0.9994433767362391 15.99992257364513 0  0.0001637097098667963 15.99993741219211 0  0.9997689127143552 15.99994433617894 0  1.999363663163117 15.99994363797906 0  2.998938762236843 15.99993548173311 0  3.998926010091255 16.00006455894006 0  4.998938341905767 16.00019350306033 0  5.999227536137004 16.00013827761976 0  6.999495876959393 16.00008898177921 0  7.999751102256179 16.00004354204489 0  9 16 0  -9 18 0  -7.999590809163829 18.00004660359806 0  -6.999172815616838 18.00009445886202 0  -5.998736744027067 18.00014479396798 0  -4.998272356475847 18.00019877654871 0  -3.998253876526872 18.00006266364466 0  -2.998269453124749 17.99992646387324 0  -1.998789866499204 17.99995154636083 0  -0.9992848380318682 17.99997141439586 0  0.0002323892781843854 17.99998637654873 0  0.9997492162209894 17.99999678587729 0  1.999253055813481 18.00000303369095 0  2.998730734708191 18.00000557555164 0  3.998713429078407 18.00006671289935 0  4.998730970322418 18.00012731606757 0  5.999081341066702 18.00009206575043 0  6.999402878519349 18.00005972628282 0  7.999705945638144 18.00002936457802 0  9 18 0  -9 20 0  -7.999544978301986 20.00002729771403 0  -6.999079481708216 20.00005498200765 0  -5.998592629333474 20.00008340246258 0  -4.998072723762957 20.00011283140634 0  -3.998051491431215 20.0000602562203 0  -2.9980703610649 20.00000757193702 0  -1.998637758214945 20.00002460885159 0  -0.9991751639080203 20.0000398942635 0  0.0003026564528701484 20.00005356857772 0  0.99978150054666 20.00006589706124 0  1.999247208423706 20.00007726695594 0  2.998685145454856 20.00008819799455 0  3.998666506297739 20.00006743145354 0  4.998685810407991 20.00004619765309 0  5.99905039457617 20.00003421223124 0  6.999383711473809 20.00002256046405 0  7.999696814817436 20.00001119827249 0  8.999999999965855 19.9999999999895 0  -9 22 0  -7.999541007807336 22.00000644431107 0  -6.999071489040729 22.00001255946405 0  -5.998580592437179 22.00001797568337 0  -4.998056813977181 22.00002224098731 0  -3.998035853329292 22.00005903209351 0  -2.998054855215079 22.00009569001333 0  -1.998605747322504 22.00010468257789 0  -0.9991264595002036 22.00011482394189 0  0.0003688220484064626 22.00012614902358 0  0.9998663806256058 22.00013884685596 0  1.999352558261837 22.00015325842465 0  2.998813346746706 22.00016988015194 0  3.998796150762099 22.00006719635261 0  4.998814388639615 21.99996410089945 0  5.999144434306923 21.99997502513171 0  6.999445350441805 21.99998423687003 0  7.999727334950255 21.99999237619945 0  9 22 0  -9 24 0  -7.999579105609294 23.99998690682254 0  -6.999148927264427 23.99997293122541 0  -5.998699950307308 23.99995715008374 0  -4.998222164538641 23.99993855952315 0  -3.99820382956465 24.00005871867558 0  -2.998220545512226 24.00017869877302 0  -1.99869457756268 24.00018015619786 0  -0.999141786517545 24.00018501374367 0  0.000425880746087324 24.00019323302716 0  0.9999968432225026 24.00020493548154 0  1.999559587274727 24.0002204017906 0  2.999102369036756 24.00024007353953 0  3.999088716031934 24.00006618702964 0  4.999103659041285 23.99989191907801 0  5.999354908317599 23.99992269014265 0  6.999582666138084 23.99995020447541 0  7.999795109805011 23.999975617191 0  9 24 0  -9 26 0  -7.999654275008691 25.99997089888565 0  -6.999301487492892 25.99994052336866 0  -5.998934415294789 25.99990755939413 0  -4.99854550989527 25.99987061421838 0  -3.998531547039637 26.00005906410302 0  -2.998544157246132 26.00024729836971 0  -1.998890811237103 26.00024201985918 0  -0.9992166681555799 26.00024174569051 0  0.0004697652096227395 26.00024637283462 0  1.000160242548994 26.00025595636235 0  1.999846591140389 26.00027070995219 0  2.999520521212342 26.00029100633583 0  3.999511885736481 26.00006462066965 0  4.999521962698664 25.99983789332652 0  5.999659257356898 25.99988338575164 0  6.999781182272635 25.99992458137804 0  7.99989306968181 25.99996297982029 0  9 26 0  -9 28 0  -7.99975765000103 27.99995998854986 0  -6.999511103870018 27.99991846795824 0  -5.999256084430836 27.99987389055092 0  -4.998988144700593 27.99982463202967 0  -3.998979699731465 28.00005985056831 0  -2.998986972366088 28.00029482172297 0  -1.999170341351968 28.00028385543242 0  -0.9993407557832139 28.0002788618198 0  0.0004974804138999932 28.00027967514207 0  1.000340220653123 28.00028628440815 0  2.000183393641546 28.00029883331254 0  3.000022919296002 28.000317620374 0  4.000020176684353 28.00006273259379 0  5.000024428891197 27.99980754357497 0  6.000024983832486 27.99986127326133 0  7.00001978278544 27.9999101505
[...]
<PointData  Vectors="f_42"> 
<DataArray  type="Float64"  Name="f_42"  NumberOfComponents="3" format="ascii">0.0000000000000000e+00 0.0000000000000000e+00 0.0000000000000000e+00  0.0000000000000000e+00 0.0000000000000000e+00 0.0000000000000000e+00  0.0000000000000000e+00 0.0000000000000000e+00 0.0000000000000000e+00  0.0000000000000000e+00 0.0000000000000000e+00 0.0000000000000000e+00  0.0000000000000000e+00 0.0000000000000000e+00 0.0000000000000000e+00  0.0000000000000000e+00 0.0000000000000000e+00 0.0000000000000000e+00  0.0000000000000000e+00 0.0000000000000000e+00 0.0000000000000000e+00  0.0000000000000000e+00 0.0000000000000000e+00 0.0000000000000000e+00  0.0000000000000000e+00 0.0000000000000000e+00 0.0000000000000000e+00  0.0000000000000000e+00 0.0000000000000000e+00 0.0000000000000000e+00  0.0000000000000000e+00 0.0000000000000000e+00 0.0000000000000000e+00  0.0000000000000000e+00 0.0000000000000000e+00 0.0000000000000000e+00  0.0000000000000000e+00 0.0000000000000000e+00 0.0000000000000000e+00  0.0000000000000000e+00 0.0000000000000000e+00 0.0000000000000000e+00  0.0000000000000000e+00 0.0000000000000000e+00 0.0000000000000000e+00  0.0000000000000000e+00 0.0000000000000000e+00 0.0000000000000000e+00  0.0000000000000000e+00 0.0000000000000000e+00 0.0000000000000000e+00  0.0000000000000000e+00 0.0000000000000000e+00 0.0000000000000000e+00  0.0000000000000000e+00 0.0000000000000000e+00 0.0000000000000000e+00  0.0000000000000000e+00 0.0000000000000000e+00 0.0000000000000000e+00  1.8471379977742628e-06 2.2599380697942129e-06 0.0000000000000000e+00  3.8011014476899098e-06 4.2520013825244170e-06 0.0000000000000000e+00  6.1569393025464954e-06 5.7596151990361205e-06 0.0000000000000000e+00  9.6276760510014652e-06 6.6887286838146195e-06 0.0000000000000000e+00  6.0254268395654627e-06 4.9278661428964277e-06 0.0000000000000000e+00  2.3850884679992355e-06 3.3211021037614601e-06 0.0000000000000000e+00  5.9564819423362776e-07 1.8340876780690153e-06 0.0000000000000000e+00  2.6396671228518682e-07 6.3494290583566528e-07 0.0000000000000000e+00  8.7655590988795347e-07 2.9630635069806859e-08 0.0000000000000000e+00  1.6636428497064415e-06 1.8114642379950778e-07 0.0000000000000000e+00  1.9175483829828075e-06 9.6455167883037508e-07 0.0000000000000000e+00  1.2180061954441326e-06 1.8463566927190073e-06 0.0000000000000000e+00  -4.2876848612224661e-07 2.5063729821737979e-06 0.0000000000000000e+00  -2.6182339363720572e-06 1.8710113800244413e-06 0.0000000000000000e+00  -1.1804630585949348e-06 2.3154891931436138e-06 0.0000000000000000e+00  -5.7221303920203988e-07 1.9922706775805524e-06 0.0000000000000000e+00  -2.5177705208876127e-07 1.1339832865324864e-06 0.0000000000000000e+00  0.0000000000000000e+00 0.0000000000000000e+00 0.0000000000000000e+00  -4.9820587634006413e-12 0.0000000000000000e+00 0.0000000000000000e+00  3.2669857021299779e-06 5.5914023920367330e-06 0.0000000000000000e+00  5.9947093619662528e-06 1.0441822283801439e-05 0.0000000000000000e+00  7.8542860917648885e-06 1.3833243446250698e-05 0.0000000000000000e+00  8.8716843726013974e-06 1.5097539859904762e-05 0.0000000000000000e+00  3.8612483916061972e-06 1.4023792840976082e-05 0.0000000000000000e+00  5.5447799936642409e-07 9.5448512900233290e-06 0.0000000000000000e+00  -2.6935265079689118e-07 3.8237732543923748e-06 0.0000000000000000e+00  1.0540842774553529e-06 -8.2583568140192438e-07 0.0000000000000000e+00  3.5518835456269604e-06 -2.9085013894428390e-06 0.0000000000000000e+00  6.1742481398653877e-06 -2.0604045559058500e-06 0.0000000000000000e+00  7.9575916629268941e-06 8.2672301672603759e-07 0.0000000000000000e+00  7.9668018298897991e-06 4.6573439017600208e-06 0.0000000000000000e+00  5.9382126399992049e-06 8.0662335382084051e-06 0.0000000000000000e+00  2.4772348281405023e-06 7.6991462348554680e-06 0.0000000000000000e+00  9.5716163292846550e-07 7.7017682561442884e-06 0.0000000000000000e+00  6.8332728371514341e-09 6.1248257376588407e-06 0.0000000000000000e+00  -2.2891822134495186e-07 3.3707599553162716e-06 0.0000000000000000e+00  0.0000000000000000e+00 0.0000000000000000e+00 0.0000000000000000e+00  0.0000000000000000e+00 0.0000000000000000e+00 0.0000000000000000e+00  6.8439464591842711e-06 1.1886919406377346e-05 0.0000000000000000e+00  1.1660915148660953e-05 2.2467749585509640e-05 0.0000000000000000e+00  1.2920342049859983e-05 3.0415473299295080e-05 0.0000000000000000e+00  1.0221914511056686e-05 3.4503731239802798e-05 0.0000000000000000e+00  6.7630320788555005e-07 2.7617668907334321e-05 0.0000000000000000e+00  -3.4855749227236927e-06 1.3940838255279321e-05 0.0000000000000000e+00  -1.3205986500746794e-06 -2.2880517234538902e-07 0.0000000000000000e+00  3.3159475097920437e-06 -7.9313625098327878e-06 0.0000000000000000e+00  7.7625518631133817e-06 -9.6401220585380739e-06 0.0000000000000000e+00  1.1590518669999617e-05 -7.7741295887730895e-06 0.0000000000000000e+00  1.4515121014304567e-05 -2.2640234159394919e-06 0.0000000000000000e+00  1.5894461050492910e-05 7.1056373960556246e-06 0.0000000000000000e+00  1.4405256833309130e-05 1.6439292864526073e-05 0.0000000000000000e+00  7.6415170549173043e-06 2.0019422113503256e-05 0.0000000000000000e+00  8.1578437101168762e-07 1.9406380751965238e-05 0.0000000000000000e+00  -2.2724519941013521e-06 1.4965945370603303e-05 0.0000000000000000e+00  -2.0647617919905154e-06 8.0743737713231041e-06 0.0000000000000000e+00  0.0000000000000000e+00 0.0000000000000000e+00 0.0000000000000000e+00  0.0000000000000000e+00 0.0000000000000000e+00 0.0000000000000000e+00  1.8529156395888551e-05 2.3407350681206111e-05 0.0000000000000000e+00  3.1557500159357266e-05 4.5026684688517660e-05 0.0000000000000000e+00  3.3817899088737825e-05 6.2436108363765210e-05 0.0000000000000000e+00  2.0972955868128565e-05 7.1661952040045856e-05 0.0000000000000000e+00  2.0928737137814024e-06 4.0985004375048780e-05 0.0000000000000000e+00  7.0477398562851664e-06 5.3365845850553961e-06 0.0000000000000000e+00  1.5374565927195242e-05 -1.1198516705242244e-05 0.0000000000000000e+00  1.6533077630257470e-05 -1.2014129066844701e-05 0.0000000000000000e+00  1.2393239007433173e-05 -1.2090557303715782e-05 0.0000000000000000e+00  9.0073741212664732e-06 -1.3790241676027051e-05 0.0000000000000000e+00  9.7962053525876336e-06 -8.4984330802137644e-06 0.0000000000000000e+00  1.7085957188371242e-05 5.7283400985829389e-07 0.0000000000000000e+00  1.9727695355035307e-05 2.5035443250505158e-05 0.0000000000000000e+00  3.7375228914911507e-06 5.2910553922480922e-05 0.0000000000000000e+00  -1.4275964197499648e-05 4.6421186858483901e-05 0.0000000000000000e+00  -1.7735810578645806e-05 3.3612043492131665e-05 0.0000000000000000e+00  -1.1329165256112627e-05 1.7509496227951228e-05 0.0000000000000000e+00  0.0000000000000000e+00 0.0000000000000000e+00 0.0000000000000000e+00  0.0000000000000000e+00 0.0000000000000000e+00 0.0000000000000000e+00  5.2220598989543565e-05 4.2082202923280800e-05 0.0000000000000000e+00  9.4529094986285644e-05 8.4428899621263320e-05 0.0000000000000000e+00  1.1513944351278472e-04 1.2719702826176756e-04 0.0000000000000000e+00  9.7745668431833410e-05 1.7029710965539083e-04 0.0000000000000000e+00  6.6959751723675773e-05 6.9092396131664562e-05 0.0000000000000000e+00  7.4597917244878363e-05 -1.7212415355049438e-05 0.0000000000000000e+00  6.3532672942760653e-05 1.0762909049003598e-06 0.0000000000000000e+00  3.6756112018050690e-05 7.0071102690284096e-06 0.0000000000000000e+00  1.8000745440923399e-05 8.4521494608759331e-06 0.0000000000000000e+00  -3.0240791372064300e-08 8.0116916457820528e-06 0.0000000000000000e+00  -2.3401024156498106e-05 7.2396785924075395e-06 0.0000000000000000e+00  -4.4792288520966613e-05 -2.1150115190559107e-05 0.0000000000000000e+00  -4.2609585340949808e-05 4.4617033695370655e-05 0.0000000000000000e+00  -7.1494792132953378e-05 1.3217259420722136e-04 0.0000000000000000e+00  -8.7586934474441917e-05 9.8718434424785369e-05 0.0000000000000000e+00  -7.2667907743626781e-05 6.5433535883111887e-05 0.0000000000000000e+00  -4.0285333976688262e-05 3.2573486636758167e-05 0.0000000000000000e+00  0.0000000000000000e+00 0.0000000000000000e+00 0.0000000000000000e+00  0.0000000000000000e+00 0.0000000000000000e+00 0.0000000000000000e+00  1.2557476818451680e-04 5.9704333234623987e-05 0.0000000000000000e+00  2.4431658389018182e-04 1.2215433518871646e-04 0.0000000000000000e+00  3.4852240712315386e-04 1.9064586859780797e-04 0.0000000000000000e+00  4.2872951351881339e-04 2.6980991743184803e-04 0.0000000000000000e+00  4.1266108276029030e-04 8.1744713173105365e-05 0.0000000000000000e+00  4.2972406749728330e-04 -1.0481097555772139e-04 0.0000000000000000e+00  3.1799810361469365e-04 -7.8241909398413898e-05 0.0000000000000000e+00  1.8933605763619241e-04 -6.1769255079079628e-05 0.0000000000000000e+00  5.3224921819311351e-05 -5.4746613190830002e-05 0.0000000000000000e+00  -8.6412693490105170e-05 -5.7240595007120371e-05 0.0000000000000000e+00  -2.2685628674308549e-04 -7.0954954237507586e-05 0.0000000000000000e+00  -3.6310434279593503e-04 -1.0047756632196498e-04 0.0000000000000000e+00  -3.5097958599455178e-04 5.6958259511124042e-05 0.0000000000000000e+00  -3.5732505428339259e-04 2.1543439246855117e-04 0.0000000000000000e+00  -2.8496385505669472e-04 1.5034578592544861e-04 0.0000000000000000e+00  -1.9746450468124054e-04 9.5559972598354580e-05 0.0000000000000000e+00  -1.0085860717952078e-04 4.6493861597099334e-05 0.0000000000000000e+00  0.0000000000000000e+00 0.0000000000000000e+00 0.0000000000000000e+00  0.0000000000000000e+00 0.0000000000000000e+00 0.0000000000000000e+00  2.2629116370911903e-04 6.6349940131303764e-05 0.0000000000000000e+00  4.5229678042139475e-04 1.3572431953383235e-04 0.0000000000000000e+00  6.7798362416617301e-04 2.1142022109802921e-04 0.0000000000000000e+00  9.0405655573872628e-04 2.9726906353343672e-04 0.0000000000000000e+00  9.0617558561350620e-04 7.2439222836666859e-05 0.0000000000000000e+00  9.1013926812253396e-04 -1.5544476740831715e-04 0.0000000000000000e+00  6.4015014318409037e-04 -1.1716354119524425e-04 0.0000000000000000e+00  3.7168027977045869e-04 -9.2735692883930406e-05 0.0000000000000000e+00  1.0254739871439155e-04 -7.9870878696737245e-05 0.0000000000000000e+00  -1.6954886056558813e-04 -7.7602741458499382e-05 0.0000000000000000e+00  -4.4703836962609945e-04 -8.5905004585033794e-05 0.0000000000000000e+00  -7.3223177406003879e-04 -1.0532585291930700e-04 0.0000000000000000e+00  -7.3585631853043370e-04 6.1560060178700565e-05 0.0000000000000000e+00  -7.3429569894824644e-04 2.2697176312479089e-04 0.0000000000000000e+00  -5.4293878381093930e-04 1.6077656780295410e-04 0.0000000000000000e+00  -3.5871318494940944e-04 1.0281606204535942e-04 0.0000000000000000e+00  -1.7845836869569511e-04 5.0129705814146665e-05 0.0000000000000000e+00  0.0000000000000000e+00 0.0000000000000000e+00 0.0000000000000000e+00  0.0000000000000000e+00 0.0000000000000000e+00 0.0000000000000000e+00  3.2819233940515968e-04 6.0902062756207573e-05 0.0000000000000000e+00  6.6162198320227203e-04 1.2401708010378382e-04 0.0000000000000000e+00  1.0060124748322726e-03 1.9159593879545473e-04 0.0000000000000000e+00  1.3681316781519936e-03 2.6592091281969483e-04 0.0000000000000000e+00  1.3802616854319237e-03 6.6202218098908414e-05 0.0000000000000000e+00  1.3710768851510212e-03 -1.3276821869616387e-04 0.0000000000000000e+00  9.5612123950960040e-04 -1.0064183168013869e-04 0.0000000000000000e+00  5.5662326376020249e-04 -7.7426354872803385e-05 0.0000000000000000e+00  1.6370970986679634e-04 -6.2587807886198941e-05 0.0000000000000000e+00  -2.3108728564593986e-04 -5.5663821065801244e-05 0.0000000000000000e+00  -6.3633683688583693e-04 -5.6362020945311214e-05 0.0000000000000000e+00  -1.0612377631525650e-03 -6.4518266899510774e-05 0.0000000000000000e+00  -1.0739899087461324e-03 6.4558940079954488e-05 0.0000000000000000e+00  -1.0616580942281128e-03 1.9350306032399469e-04 0.0000000000000000e+00  -7.7246386299096301e-04 1.3827761976883653e-04 0.0000000000000000e+00  -5.0412304060998888e-04 8.8981779207559405e-05 0.0000000000000000e+00  -2.4889774381704950e-04 4.3542044884573195e-05 0.0000000000000000e+00  0.0000000000000000e+00 0.0000000000000000e+00 0.0000000000000000e+00  0.0000000000000000e+00 0.0000000000000000e+00 0.0000000000000000e+00  4.0919083618442029e-04 4.6603598063153208e-05 0.0000000000000000e+00  8.2718438316240492e-04 9.4458862023467753e-05 0.0000000000000000e+00  1.2632559729340443e-03 1.4479396797921891e-04 0.0000000000000000e+00  1.7276435241520465e-03 1.9877654872883134e-04 0.0000000000000000e+00  1.7461234731287760e-03 6.2663644645692153e-05 0.0000000000000000e+00  1.7305468752512939e-03 -7.3536126748168204e-05 0.0000000000000000e+00  1.2101335007971433e-03 -4.8453639168962757e-05 0.0000000000000000e+00  7.1516196812921196e-04 -2.8585604147322889e-05 0.0000000000000000e+00  2.3238927818438536e-04 -1.3623451257393101e-05 0.0000000000000000e+00  -2.5078377900941977e-04 -3.2141227046635953e-06 0.0000000000000000e+00  -7.4694418652201890e-04 3.0336909343400810e-06 0.0000000000000000e+00  -1.2692652918081121e-03 5.5755516239619524e-06 0.0000000000000000e+00  -1.2865709215906670e-03 6.6712899343900262e-05 0.0000000000000000e+00  -1.2690296775806637e-03 1.2731606755484327e-04 0.0000000000000000e+00  -9.1865893329119176e-04 9.2065750416726541e-05 0.0000000000000000e+00  -5.9712148064484450e-04 5.9726282829081617e-05 0.0000000000000000e+00  -2.9405436185223624e-04 2.9364578033321358e-05 0.0000000000000000e+00  0.0000000000000000e+00 0.0000000000000000e+00 0.0000000000000000e+00  0.0000000000000000e+00 0.0000000000000000e+00 0.0000000000000000e+00  4.5502169802367408e-04 2.7297714021601129e-05 0.0000000000000000e+00  9.2051829178685114e-04 5.4982007664585149e-05 0.0000000000000000e+00  1.4073706665217512e-03 8.3402462596071880e-05 0.0000000000000000e+00  1.9272762370417201e-03 1.1283140634439253e-04 0.0000000000000000e+00  1.9485085687862922e-03 6.0256220310043849e-05 0.0000000000000000e+00  1.9296389350957105e-03 7.5719370196338932e-06 0.0000000000000000e+00  1.3622417850545263e-03 2.4608851593759518e-05 0.0000000000000000e+00  8.2483609197927057e-04 3.9894263497899642e-05 0.0000000000000000e+00  3.0265645287014844e-04 5.3568577744285667e-05 0.0000000000000000e+00  -2.1849945333936188e-04 6.5897061253499407e-05 0.0000000000000000e+00  -7.5279157629009241e-04 7.7266955940565437e-05 0.0000000000000000e+00  -1.3148545451424660e-03 8.8197994516524345e-05 0.0000000000000000e+00  -1.3334937022570202e-03 6.7431453517404104e-05 0.0000000000000000e+00  -1.3141895920092521e-03 4.6197653103637528e-05 0.0000000000000000e+00  -9.4960542383024679e-04 3.4212231216004456e-05 0.0000000000000000e+00  -6.1628852619312043e-04 2.2560464043725897e-05 0.0000000000000000e+00  -3.0318518258032519e-04 1.1198272461838666e-05 0.0000000000000000e+00  -3.4144386025249465e-11 -1.0487399131745346e-11 0.0000000000000000e+00  0.0000000000000000e+00 0.0000000000000000e+00 0.0000000000000000e+00  4.5899219266738365e-04 6.4443110690430688e-06 0.0000000000000000e+00  9.2851095926597168e-04 1.2559464046059319e-05 0.0000000000000000e+00  1.4194075628184411e-03 1.7975683370486653e-05 0.0000000000000000e+00  1.9431860228214539e-03 2.2240987312849729e-05 0.0000000000000000e+00  1.9641466707054551e-03 5.9032093521458630e-05 0.0000000000000000e+00  1.9451447849196937e-03 9.5690013335575022e-05 0.0000000000000000e+00  1.3942526775001832e-03 1.0468257791756852e-04 0.0000000000000000e+00  8.7354049979532526e-04 1.1482394189769886e-04 0.0000000000000000e+00  3.6882204840646264e-04 1.2614902356785978e-04 0.0000000000000000e+00  -1.3361937439402419e-04 1.3884685594088106e-04 0.0000000000000000e+00  -6.4744173816355709e-04 1.5325842462948116e-04 0.0000000000000000e+00  -1.1866532532949317e-03 1.6988015191910641e-04 0.0000000000000000e+00  -1.2038492378946639e-03 6.7196352621781802e-05 0.0000000000000000e+00  -1.1856113603867261e-03 -3.5899100546843207e-05 0.0000000000000000e+00  -8.5556569308116220e-04 -2.4974868283700671e-05 0.0000000000000000e+00  -5.5464955820001198e-04 -1.5763129951609272e-05 0.0000000000000000e+00  -2.7266504974779644e-04 -7.6238005322339543e-06 0.0000000000000000e+00  0.0000000000000000e+00 0.0000000000000000e+00 0.0000000000000000e+00  0.0000000000000000e+00 0.0000000000000000e+00 0.0000000000000000e+00  4.2089439072069142e-04 -1.3093177472039343e-05 0.0000000000000000e+00  8.5107273557190712e-04 -2.7068774569955056e-05 0.0000000000000000e+00  1.3000496926864080e-03 -4.2849916252661182e-05 0.0000000000000000e+00  1.7778354613672950e-03 -6.1440476865594519e-05 0.0000000000000000e+00  1.7961704353497122e-03 5.8718675585560818e-05 0.0000000000000000e+00  1.7794544877737712e-03 1.7869877299723147e-04 0.0000000000000000e+00  1.3054224373214524e-03 1.8015619784378798e-04 0.0000000000000000e+00  8.5821348245440502e-04 1.8501374366012113e-04 0.0000000000000000e+00  4.2588074608732404e-04 1.9323302714804316e-04 0.0000000000000000e+00  -3.1567774991519423e-06 2.0493548153597215e-04 0.0000000000000000e+00  -4.4041272526898864e-04 2.2040179062110738e-04 0.0000000000000000e+00  -8.9763096324491629e-04 2.4007353953124874e-04 0.0000000000000000e+00  -9.1128396807635826e-04 6.6187029649672252e-05 0.0000000000000000e+00  -8.9634095871572749e-04 -1.0808092200623617e-04 0.0000000000000000e+00  -6.4509168239956500e-04 -7.7309857330757210e-05 0.0000000000000000e+00  -4.1733386192248525e-04 -4.9795524600498194e-05 0.0000000000000000e+00  -2.0489019498393278e-04 -2.4382808999704532e-05 0.0000000000000000e+00  0.0000000000000000e+00 0.0000000000000000e+00 0.0000000000000000e+00  0.0000000000000000e+00 0.0000000000000000e+00 0.0000000000000000e+00  3.4572499130055889e-04 -2.9101114344468482e-05 0.0000000000000000e+00  6.9851250710500998e-04 -5.9476631344529375e-05 0.0000000000000000e+00  1.0655847052140736e-03 -9.2440605869555578e-05 0.0000000000000000e+00  1.4544901047361942e-03 -1.2938578161560412e-04 0.0000000000000000e+00  1.4684529603593687e-03 5.9064103030650508e-05 0.0000000000000000e+00  1.4558427538696966e-03 2.4729836972485437e-04 0.0000000000000000e+00  1.1091887628952226e-03 2.4201985918420957e-04 0.0000000000000000e+00  7.8333184442089482e-04 2.4174569052522210e-04 0.0000000000000000e+00  4.6976520962273949e-04 2.4637283462788093e-04 0.0000000000000000e+00  1.6024254899473978e-04 2.5595636236295523e-04 0.0000000000000000e+00  -1.5340885960972081e-04 2.7070995215666260e-04 0.0000000000000000e+00  -4.7947878765864987e-04 2.9100633582772241e-04 0.0000000000000000e+00  -4.8811426351515858e-04 6.4620669659360910e-05 0.0000000000000000e+00  -4.7803730134041394e-04 -1.6210667346423631e-04 0.0000000000000000e+00  -3.4074264310546574e-04 -1.1661424837326734e-04 0.0000000000000000e+00  -2.1881772736564314e-04 -7.5418621943648413e-05 0.0000000000000000e+00  -1.0693031818460381e-04 -3.7020179690609683e-05 0.0000000000000000e+00  0.0000000000000000e+00 0.0000000000000000e+00 0.0000000000000000e+00  0.0000000000000000e+00 0.0000000000000000e+00 0.0000000000000000e+00  2.4234999897168868e-04 -4.0011450132186123e-05 0.0000000000000000e+00  4.8889612998140623e-04 -8.1532041757964563e-05 0.0000000000000000e+00  7.4391556916259330e-04 -1.2610944907922832e-04 0.0000000000000000e+00  1.0118552994075301e-03 -1.7536797034349642e-04 0.0000000000000000e+00  1.0203002685300186e-03 5.9850568300419857e-05 0.0000000000000000e+00  1.0130276339130005e-03 2.9482172294324662e-04 0.0000000000000000e+00  8.2965864803066943e-04 2.8385543238413768e-04 0.0000000000000000e+00  6.5924421678584233e-04 2.7886181980230665e-04 0.0000000000000000e+00  4.9748041389999318e-04 2.7967514204257378e-04 0.0000000000000000e+00  3.4022065312257796e-04 2.8628440814526887e-04 0.0000000000000000e+00  1.8339364154776878e-04 2.9883331254270708e-04 0.0000000000000000e+00  2.2919296006202868e-05 3.1762037399612905e-04 0.0000000000000000e+00  2.0176684350848876e-05 6.2732593786450993e-05 0.0000000000000000e+00  2.4428891194412975e-05 -1.9245642503059473e-04 0.0000000000000000e+00  2.4983832486574726e-05 -1.3872673865768017e-04 0.0000000000000000e+0