<?xml version="1.0"?>
<VTKFile type="UnstructuredGrid"  version="0.1"  >
<UnstructuredGrid>
<Piece  NumberOfPoints="589" NumberOfCells="1080">
<Points>
<DataArray  type="Float64"  NumberOfComponents="3"  format="ascii">-9 0 0  -8 0 0  -7 0 0  -6 0 0  -5 0 0  -4 0 0  -3 0 0  -2 0 0  -1 0 0  0 0 0  1 0 0  2 0 0  3 0 0  4 0 0  5 0 0  6 0 0  7 0 0  8 0 0  9 0 0  -9 2 0  -8.000004399477607 1.9999929079028 0  -7.000009276787496 1.999986714841018 0  -6.000015745102637 1.999982154250501 0  -5.000026339028582 1.999979556768008 0  -4.000015238451937 1.999984599664943 0  -3.00000378865593 1.999989530834153 0  -1.999998242428667 1.999994217667381 0  -0.9999974096911252 1.999997908748189 0  5.031392940186029e-07 1.999999469862099 0  0.9999982888887147 1.9999981881785 0  1.999998691158128 1.999994308993386 0  3.000003590438668 1.999989505858467 0  4.000013662545097 1.999984186331404 0  5.000028407912142 1.999981430087317 0  6.000017441850519 1.999982526721121 0  7.000010481375023 1.999986649308827 0  8.00000502686312 1.999992807297598 0  9 2 0  -9.000000000004983 4 0  -8.000006887572836 3.999982219957596 0  -7.000012189583381 3.99996690001234 0  -6.000014987729562 3.999956456187151 0  -5.000015501621726 3.999953203768391 0  -3.999999048209002 3.999955365692414 0  -2.999987997448621 3.999969424881334 0  -1.999985153563666 3.999987838030029 0  -0.9999894367864175 4.000002632179421 0  2.41074040465324e-06 4.000008440823209 0  0.9999941439351301 4.000003314207973 0  1.999989502808389 3.999989929185786 0  2.999992254040374 3.999971767905053 0  4.000003566617698 3.999953200634442 0  5.000020653310579 3.999945951331975 0  6.00001886124012 3.999952949882317 0  7.000014938767653 3.99996515740561 0  8.00000834295853 3.999981476140842 0  9 4 0  -9 6 0  -8.000015717554087 5.99996169311082 0  -7.000025117823921 5.999927582088334 0  -6.000023367349643 5.999901993852318 0  -5.000009050990299 5.999889110420582 0  -3.999976612795896 5.999909811322323 0  -2.99996176967223 5.9999536617646 0  -1.99996736070078 5.999999774128528 0  -0.9999817435561816 6.000025536498256 0  3.518912289351554e-06 6.00003057495034 0  0.9999901332466735 6.000021744793258 0  1.999979922849857 5.999997588013832 0  2.999976275154453 5.999956817725947 0  3.999984486885439 5.99991427331668 0  5.000013213997551 5.999892448565318 0  6.000028802245616 5.999902538547172 0  7.000030089041166 5.99992722229025 0  8.000018646955755 5.999961326058583 0  9 6 0  -9 8 0  -8.000049812494833 7.999924389341031 0  -7.000082646393794 7.999854180516695 0  -6.000082008821502 7.99979671980396 0  -5.000033672306635 7.999764127793517 0  -3.999971061588433 7.999860780640297 0  -2.999981568682808 7.999974717025442 0  -2.000004228756466 8.000030839540939 0  -1.00000591169399 8.000037985324841 0  8.049959377682462e-06 8.000040180680742 0  1.000018245079241 8.000045823761525 0  2.000013471037767 8.000021156197876 0  2.999985440319361 7.999979242211445 0  3.999976026141745 7.999876734532711 0  5.000039479794334 7.999761254758882 0  6.00009594354342 7.999793763091421 0  7.000096148289604 7.999851615542183 0  8.000057764708073 7.999922901758428 0  9 8 0  -9 10 0  -8.000151787220823 9.999865506232995 0  -7.000274023445972 9.999729829980227 0  -6.000331409483823 9.999592042711651 0  -5.000274725128719 9.999451810304498 0  -4.00017590960567 9.999762746634918 0  -3.000190177370215 10.00003072163305 0  -2.000149274709128 9.999986988087295 0  -1.000062449666714 9.999972972007688 0  2.2100211250011e-06 9.999969540853174 0  1.0000667932923 9.999969557652324 0  2.000153331287327 9.99996691967624 0  3.000228737434193 10.00006554803406 0  4.000218742764386 9.999798900123904 0  5.000335806168879 9.999447671935807 0  6.000388041259192 9.999583673283313 0  7.000316510121865 9.999722308672196 0  8.000174373435435 9.999861251639887 0  9 10 0  -9 12 0  -8.000371806461818 11.99981141239505 0  -7.00072454038357 11.99961402349465 0  -6.001036587160717 11.99939732047698 0  -5.001281084145625 11.99914666888025 0  -4.001230407444827 11.99971152941245 0  -3.001273721233168 12.00027058884197 0  -2.000856397045203 12.00020622683021 0  -1.000395233913325 12.00017298500427 0  8.172552754499016e-05 12.00016946647991 0  1.000561669688175 12.00019711031129 0  2.001033280954572 12.00026316400205 0  3.001473936222405 12.00038549148266 0  4.001422972056348 11.99974453346992 0  5.00145867066624 11.99909816015029 0  6.001174806802279 11.9993631921733 0  7.000819094499684 11.99959186053659 0  8.000419806374655 11.99980043526389 0  9 12 0  -9 14 0  -8.00066778844359 13.99979259035026 0  -7.001337281164287 13.99957558879908 0  -6.002011065534985 13.99933856101587 0  -5.002694054984938 13.99906942247359 0  -4.002700730874069 13.99972652628749 0  -3.002702511018034 14.00039178881369 0  -2.001739495367735 14.00030110841347 0  -1.000791455954508 14.00025421446392 0  0.000149420758189955 14.00024484714984 0  1.001090421295301 14.00027115625475 0  2.002038051007429 14.00033450617695 0  3.002997025351863 14.00043826500899 0  4.003003570119396 13.99971913809458 0  5.003010546359566 13.999004120857 0  6.002248089909468 13.99928845364385 0  7.001495467054885 13.99954195993165 0  8.000746989695363 13.99977575411538 0  9 14 0  -9 16 0  -8.000956508762329 15.99981217983756 0  -7.001932121463605 15.99961735255914 0  -6.002947539799311 15.99940838571998 0  -5.004026761081161 15.99917801394909 0  -4.004065348015224 15.99973326091251 0  -3.004026556399101 16.00028527406366 0  -2.002563861170431 16.00022121390976 0  -1.001159519740917 16.00018563729587 0  0.0002166830547044802 16.00017779601334 0  1.001593268272475 16.0001973118248 0  2.002998690580234 16.00024448809774 0  3.00446314387381 16.00032016569866 0  4.004504727921459 15.9997001548103 0  5.004469840374368 15.99907943075507 0  6.003280550177934 15.99933722159289 0  7.002154351288361 15.99957104824164 0  8.001067678273294 15.99978934082645 0  9 16 0  -9 18 0  -8.001168341983439 17.99985980904552 0  -7.002366901888299 17.99971572122039 0  -6.003627446611441 17.99956390595119 0  -5.004984844629575 17.99940068737925 0  -4.005043469475948 17.99973343314674 0  -3.004984926654412 18.00006547818982 0  -2.003156326005356 18.00002769617591 0  -1.001415720152286 18.00000644108441 0  0.0002824285269913066 18.00000163682474 0  1.001981476279604 18.00001314106826 0  2.003724719773401 18.00004076963098 0  3.005557507794164 18.00008421174574 0  4.00561886519182 17.99968560238547 0  5.005561574503155 17.99928783027068 0  6.00405893255982 17.99948197758952 0  7.002654050467237 17.99966235424374 0  8.001311764614025 17.9998334920836 0  9 18 0  -9 20 0  -8.00125887108759 19.99992301876349 0  -7.00255288146009 19.999845012093 0  -6.003918512623175 19.99976506745976 0  -5.005394935961205 19.99968249775091 0  -4.005461932361452 19.99973160448759 0  -3.005393988388472 19.99977998168856 0  -2.003398542839527 19.99976830126381 0  -1.001502900421698 19.99976168269626 0  0.0003445774615894508 19.99976048334891 0  1.002193699425298 19.99976470678384 0  2.004094283117835 19.99977401596378 0  3.006098005509497 19.99978770165552 0  4.006167849872721 19.99967781864127 0  5.006099876856283 19.99956847106269 0  6.0044445039454 19.99968185558589 0  7.002902266604565 19.99979063332117 0  8.001433184718701 19.99989615732843 0  8.999999999985883 19.99999999999842 0  -9 22 0  -8.001208439285758 21.99999032335466 0  -7.002451514311474 21.99998205567544 0  -6.003764958950687 21.99997673543611 0  -5.005186699158894 21.99997616316086 0  -4.00525217352044 21.99972714348761 0  -3.005185544839584 21.99947736720037 0  -2.003243321013177 21.9994887368723 0  -1.001398247260723 21.99949533362235 0  0.0004001718652614277 21.9994977262745 0  1.002200945377179 21.99949601224795 0  2.004053114312194 21.99948982686728 0  3.006007273142555 21.99947833483835 0  4.00607521466431 21.99967477928808 0  5.006006639300987 21.99987147944676 0  6.004375828533926 21.99990015534195 0  7.002856830984019 21.99993191752572 0  8.001410520689388 21.99996552838839 0  9 22 0  -9 24 0  -8.00101904118335 24.00005199494715 0  -7.002067774094452 24.00010731356526 0  -6.003176732459592 24.0001694150293 0  -5.004378118214329 24.00024203633146 0  -4.004434204125757 23.99972037440885 0  -3.004377347517893 23.99919803515471 0  -2.002701238127127 23.99922819391172 0  -1.001107771976765 23.99924573597626 0  0.0004464034542637367 23.99925133170275 0  1.00200352224408 23.99924513556471 0  2.003605861281196 23.99922678860747 0  3.005296904854636 23.99919541502383 0  4.005354575375231 23.99967548912808 0  5.005293768103567 24.00015566037675 0  6.003858273679775 24.00010609469885 0  7.00251967584558 24.00006579476995 0  8.001244256312107 24.00003144396259 0  9 24 0  -9 26 0  -8.000710388171246 26.00010038350291 0  -7.001442151894469 26.00020545027311 0  -6.002217257461353 26.00032002302308 0  -5.003058773633165 26.00044920983155 0  -4.003099470335428 25.99971177398258 0  -3.003058811234431 25.99897378271978 0  -2.001830264489987 25.99901795745375 0  -1.000660897662292 25.99904376395902 0  0.0004809380185280397 25.99905194447997 0  1.001626143691273 25.9990426994615 0  2.002805667689126 25.99901568878505 0  3.004051300521465 25.99897003011558 0  4.004092394297038 25.99967895111258 0  5.004045784187471 26.00038783193403 0  6.002951534828709 26.00027496363001 0  7.001928840918334 26.00017587372854 0  8.000952884833575 26.00008573388957 0  9 26 0  -9 28 0  -8.000315655016312 28.00013005182164 0  -7.000642113713118 28.00026557480388 0  -6.000990502146022 28.00041218270512 0  -5.001372481646894 28.00057577734884 0  -4.001393715407419 27.99970206780006 0  -3.001373529308832 27.99882798067876 0  -2.000724233986648 27.99888102145051 0  -1.000104652457987 27.99891212298305 0  0.0005020656755198297 27.99892208493113 0  1.001112400789404 27.99891114928189 0  2.001742880623107 27.99887900019266 0  3.002410498407927 27.99882476304934 0  4.002430859793609 27.99968437355796 0  5.0024029814343 28.00054386139843 0  6.00175695009368 28.00038872201823 0  7.001150039202662 28.00025016052847 0  8.0005687081
[...]
<PointData  Vectors="f_42"> 
<DataArray  type="Float64"  Name="f_42"  NumberOfComponents="3" format="ascii">0.0000000000000000e+00 0.0000000000000000e+00 0.0000000000000000e+00  0.0000000000000000e+00 0.0000000000000000e+00 0.0000000000000000e+00  0.0000000000000000e+00 0.0000000000000000e+00 0.0000000000000000e+00  0.0000000000000000e+00 0.0000000000000000e+00 0.0000000000000000e+00  0.0000000000000000e+00 0.0000000000000000e+00 0.0000000000000000e+00  0.0000000000000000e+00 0.0000000000000000e+00 0.0000000000000000e+00  0.0000000000000000e+00 0.0000000000000000e+00 0.0000000000000000e+00  0.0000000000000000e+00 0.0000000000000000e+00 0.0000000000000000e+00  0.0000000000000000e+00 0.0000000000000000e+00 0.0000000000000000e+00  0.0000000000000000e+00 0.0000000000000000e+00 0.0000000000000000e+00  0.0000000000000000e+00 0.0000000000000000e+00 0.0000000000000000e+00  0.0000000000000000e+00 0.0000000000000000e+00 0.0000000000000000e+00  0.0000000000000000e+00 0.0000000000000000e+00 0.0000000000000000e+00  0.0000000000000000e+00 0.0000000000000000e+00 0.0000000000000000e+00  0.0000000000000000e+00 0.0000000000000000e+00 0.0000000000000000e+00  0.0000000000000000e+00 0.0000000000000000e+00 0.0000000000000000e+00  0.0000000000000000e+00 0.0000000000000000e+00 0.0000000000000000e+00  0.0000000000000000e+00 0.0000000000000000e+00 0.0000000000000000e+00  0.0000000000000000e+00 0.0000000000000000e+00 0.0000000000000000e+00  0.0000000000000000e+00 0.0000000000000000e+00 0.0000000000000000e+00  -4.3994776181557650e-06 -7.0920971983506679e-06 0.0000000000000000e+00  -9.2767874922718237e-06 -1.3285158981449893e-05 0.0000000000000000e+00  -1.5745102636404217e-05 -1.7845749498528978e-05 0.0000000000000000e+00  -2.6339028591150900e-05 -2.0443231994026106e-05 0.0000000000000000e+00  -1.5238451935360670e-05 -1.5400335056268227e-05 0.0000000000000000e+00  -3.7886559334917259e-06 -1.0469165846660277e-05 0.0000000000000000e+00  1.7575713347673260e-06 -5.7823326188066507e-06 0.0000000000000000e+00  2.5903088738574336e-06 -2.0912518104028926e-06 0.0000000000000000e+00  5.0313929401860288e-07 -5.3013790285928588e-07 0.0000000000000000e+00  -1.7111112845210403e-06 -1.8118214986681523e-06 0.0000000000000000e+00  -1.3088418725644066e-06 -5.6910066117092975e-06 0.0000000000000000e+00  3.5904386698436837e-06 -1.0494141534989100e-05 0.0000000000000000e+00  1.3662545100037664e-05 -1.5813668596825425e-05 0.0000000000000000e+00  2.8407912140018391e-05 -1.8569912682389627e-05 0.0000000000000000e+00  1.7441850516127163e-05 -1.7473278879075374e-05 0.0000000000000000e+00  1.0481375019973072e-05 -1.3350691174811311e-05 0.0000000000000000e+00  5.0268631139391194e-06 -7.1927024033359766e-06 0.0000000000000000e+00  0.0000000000000000e+00 0.0000000000000000e+00 0.0000000000000000e+00  -4.9820587634006413e-12 0.0000000000000000e+00 0.0000000000000000e+00  -6.8875728284472394e-06 -1.7780042404771632e-05 0.0000000000000000e+00  -1.2189583375349333e-05 -3.3099987659958121e-05 0.0000000000000000e+00  -1.4987729562253580e-05 -4.3543812849908523e-05 0.0000000000000000e+00  -1.5501621733306243e-05 -4.6796231606610393e-05 0.0000000000000000e+00  9.5179099621582197e-07 -4.4634307585853902e-05 0.0000000000000000e+00  1.2002551377064508e-05 -3.0575118664308392e-05 0.0000000000000000e+00  1.4846436333775187e-05 -1.2161969972083037e-05 0.0000000000000000e+00  1.0563213582535037e-05 2.6321794223516551e-06 0.0000000000000000e+00  2.4107404046532395e-06 8.4408232119701782e-06 0.0000000000000000e+00  -5.8560648697171634e-06 3.3142079796291322e-06 0.0000000000000000e+00  -1.0497191611115061e-05 -1.0070814214515560e-05 0.0000000000000000e+00  -7.7459596232245330e-06 -2.8232094947007796e-05 0.0000000000000000e+00  3.5666176966091794e-06 -4.6799365556412747e-05 0.0000000000000000e+00  2.0653310574118310e-05 -5.4048668023906958e-05 0.0000000000000000e+00  1.8861240114634753e-05 -4.7050117680555722e-05 0.0000000000000000e+00  1.4938767654130007e-05 -3.4842594389830056e-05 0.0000000000000000e+00  8.3429585406427069e-06 -1.8523859159606413e-05 0.0000000000000000e+00  0.0000000000000000e+00 0.0000000000000000e+00 0.0000000000000000e+00  0.0000000000000000e+00 0.0000000000000000e+00 0.0000000000000000e+00  -1.5717554099848997e-05 -3.8306889186127522e-05 0.0000000000000000e+00  -2.5117823916217689e-05 -7.2417911665172859e-05 0.0000000000000000e+00  -2.3367349649266051e-05 -9.8006147676506328e-05 0.0000000000000000e+00  -9.0509902971961712e-06 -1.1088957941305492e-04 0.0000000000000000e+00  2.3387204105097157e-05 -9.0188677671801038e-05 0.0000000000000000e+00  3.8230327771675156e-05 -4.6338235396824140e-05 0.0000000000000000e+00  3.2639299220080446e-05 -2.2587147753765041e-07 0.0000000000000000e+00  1.8256443818337051e-05 2.5536498257497179e-05 0.0000000000000000e+00  3.5189122893515541e-06 3.0574950335217437e-05 0.0000000000000000e+00  -9.8667533269156354e-06 2.1744793261188830e-05 0.0000000000000000e+00  -2.0077150142078309e-05 -2.4119861706157311e-06 0.0000000000000000e+00  -2.3724845547795804e-05 -4.3182274046474852e-05 0.0000000000000000e+00  -1.5513114560712501e-05 -8.5726683320431175e-05 0.0000000000000000e+00  1.3213997553376166e-05 -1.0755143468277744e-04 0.0000000000000000e+00  2.8802245608961307e-05 -9.7461452825939473e-05 0.0000000000000000e+00  3.0089041161872247e-05 -7.2777709750026910e-05 0.0000000000000000e+00  1.8646955757045471e-05 -3.8673941416961253e-05 0.0000000000000000e+00  0.0000000000000000e+00 0.0000000000000000e+00 0.0000000000000000e+00  0.0000000000000000e+00 0.0000000000000000e+00 0.0000000000000000e+00  -4.9812494842371706e-05 -7.5610658967125322e-05 0.0000000000000000e+00  -8.2646393796509203e-05 -1.4581948330601204e-04 0.0000000000000000e+00  -8.2008821502377725e-05 -2.0328019604498216e-04 0.0000000000000000e+00  -3.3672306635477865e-05 -2.3587220647204409e-04 0.0000000000000000e+00  2.8938411568754524e-05 -1.3921935969715005e-04 0.0000000000000000e+00  1.8431317191025842e-05 -2.5282974558963023e-05 0.0000000000000000e+00  -4.2287564667558629e-06 3.0839540942199848e-05 0.0000000000000000e+00  -5.9116939900921251e-06 3.7985324843384040e-05 0.0000000000000000e+00  8.0499593776824624e-06 4.0180680738771998e-05 0.0000000000000000e+00  1.8245079241609238e-05 4.5823761511922495e-05 0.0000000000000000e+00  1.3471037767281424e-05 2.1156197868713953e-05 0.0000000000000000e+00  -1.4559680640556163e-05 -2.0757788549802500e-05 0.0000000000000000e+00  -2.3973858255816421e-05 -1.2326546728791475e-04 0.0000000000000000e+00  3.9479794327687602e-05 -2.3874524112534517e-04 0.0000000000000000e+00  9.5943543421398794e-05 -2.0623690857884494e-04 0.0000000000000000e+00  9.6148289605066587e-05 -1.4838445782508711e-04 0.0000000000000000e+00  5.7764708068313696e-05 -7.7098241571357156e-05 0.0000000000000000e+00  0.0000000000000000e+00 0.0000000000000000e+00 0.0000000000000000e+00  0.0000000000000000e+00 0.0000000000000000e+00 0.0000000000000000e+00  -1.5178722082364953e-04 -1.3449376700021859e-04 0.0000000000000000e+00  -2.7402344596997311e-04 -2.7017001977272065e-04 0.0000000000000000e+00  -3.3140948382406437e-04 -4.0795728834419333e-04 0.0000000000000000e+00  -2.7472512872215552e-04 -5.4818969550347754e-04 0.0000000000000000e+00  -1.7590960566710631e-04 -2.3725336507823223e-04 0.0000000000000000e+00  -1.9017737021607173e-04 3.0721633047929167e-05 0.0000000000000000e+00  -1.4927470913247675e-04 -1.3011912698852107e-05 0.0000000000000000e+00  -6.2449666714523133e-05 -2.7027992316111060e-05 0.0000000000000000e+00  2.2100211250010998e-06 -3.0459146834233711e-05 0.0000000000000000e+00  6.6793292303103945e-05 -3.0442347675875795e-05 0.0000000000000000e+00  1.5333128732889845e-04 -3.3080323766705633e-05 0.0000000000000000e+00  2.2873743419137165e-04 6.5548034055623030e-05 0.0000000000000000e+00  2.1874276438980906e-04 -2.0109987609415961e-04 0.0000000000000000e+00  3.3580616888517892e-04 -5.5232806419850539e-04 0.0000000000000000e+00  3.8804125919898004e-04 -4.1632671668462079e-04 0.0000000000000000e+00  3.1651012186458319e-04 -2.7769132780255587e-04 0.0000000000000000e+00  1.7437343542554308e-04 -1.3874836011120380e-04 0.0000000000000000e+00  0.0000000000000000e+00 0.0000000000000000e+00 0.0000000000000000e+00  0.0000000000000000e+00 0.0000000000000000e+00 0.0000000000000000e+00  -3.7180646181636930e-04 -1.8858760494472638e-04 0.0000000000000000e+00  -7.2454038356976761e-04 -3.8597650535537859e-04 0.0000000000000000e+00  -1.0365871607180149e-03 -6.0267952300544294e-04 0.0000000000000000e+00  -1.2810841456222487e-03 -8.5333111974859031e-04 0.0000000000000000e+00  -1.2304074448278670e-03 -2.8847058754523396e-04 0.0000000000000000e+00  -1.2737212331688464e-03 2.7058884197718388e-04 0.0000000000000000e+00  -8.5639704520297445e-04 2.0622683021990200e-04 0.0000000000000000e+00  -3.9523391332384124e-04 1.7298500426590765e-04 0.0000000000000000e+00  8.1725527544990162e-05 1.6946647991291885e-04 0.0000000000000000e+00  5.6166968817487168e-04 1.9711031128490542e-04 0.0000000000000000e+00  1.0332809545702821e-03 2.6316400204490274e-04 0.0000000000000000e+00  1.4739362224037733e-03 3.8549148264101023e-04 0.0000000000000000e+00  1.4229720563510248e-03 -2.5546653007535371e-04 0.0000000000000000e+00  1.4586706662328051e-03 -9.0183984969580762e-04 0.0000000000000000e+00  1.1748068022782413e-03 -6.3680782669633365e-04 0.0000000000000000e+00  8.1909449969157363e-04 -4.0813946341000976e-04 0.0000000000000000e+00  4.1980637464931548e-04 -1.9956473611464206e-04 0.0000000000000000e+00  0.0000000000000000e+00 0.0000000000000000e+00 0.0000000000000000e+00  0.0000000000000000e+00 0.0000000000000000e+00 0.0000000000000000e+00  -6.6778844360003723e-04 -2.0740964974258670e-04 0.0000000000000000e+00  -1.3372811642899276e-03 -4.2441120092613437e-04 0.0000000000000000e+00  -2.0110655349854546e-03 -6.6143898413429639e-04 0.0000000000000000e+00  -2.6940549849433625e-03 -9.3057752640947507e-04 0.0000000000000000e+00  -2.7007308740698739e-03 -2.7347371250400479e-04 0.0000000000000000e+00  -2.7025110180325528e-03 3.9178881368147556e-04 0.0000000000000000e+00  -1.7394953677344728e-03 3.0110841345531281e-04 0.0000000000000000e+00  -7.9145595450646512e-04 2.5421446391369403e-04 0.0000000000000000e+00  1.4942075818995504e-04 2.4484714983203661e-04 0.0000000000000000e+00  1.0904212952992549e-03 2.7115625475254668e-04 0.0000000000000000e+00  2.0380510074325940e-03 3.3450617695346294e-04 0.0000000000000000e+00  2.9970253518639234e-03 4.3826500898523933e-04 0.0000000000000000e+00  3.0035701193863247e-03 -2.8086190542207844e-04 0.0000000000000000e+00  3.0105463595709414e-03 -9.9587914299974103e-04 0.0000000000000000e+00  2.2480899094657041e-03 -7.1154635615246935e-04 0.0000000000000000e+00  1.4954670548824568e-03 -4.5804006835752689e-04 0.0000000000000000e+00  7.4698969535753478e-04 -2.2424588461852235e-04 0.0000000000000000e+00  0.0000000000000000e+00 0.0000000000000000e+00 0.0000000000000000e+00  0.0000000000000000e+00 0.0000000000000000e+00 0.0000000000000000e+00  -9.5650876231814189e-04 -1.8782016244415692e-04 0.0000000000000000e+00  -1.9321214636077602e-03 -3.8264744086257606e-04 0.0000000000000000e+00  -2.9475397993099289e-03 -5.9161428000457765e-04 0.0000000000000000e+00  -4.0267610811621059e-03 -8.2198605091244627e-04 0.0000000000000000e+00  -4.0653480152227387e-03 -2.6673908748200200e-04 0.0000000000000000e+00  -4.0265563991015753e-03 2.8527406367408534e-04 0.0000000000000000e+00  -2.5638611704321907e-03 2.2121390975704961e-04 0.0000000000000000e+00  -1.1595197409172693e-03 1.8563729587053190e-04 0.0000000000000000e+00  2.1668305470448024e-04 1.7779601333905474e-04 0.0000000000000000e+00  1.5932682724743069e-03 1.9731182479263622e-04 0.0000000000000000e+00  2.9986905802316926e-03 2.4448809772708408e-04 0.0000000000000000e+00  4.4631438738149077e-03 3.2016569864782592e-04 0.0000000000000000e+00  4.5047279214561640e-03 -2.9984518967929590e-04 0.0000000000000000e+00  4.4698403743727759e-03 -9.2056924492987607e-04 0.0000000000000000e+00  3.2805501779377107e-03 -6.6277840711438576e-04 0.0000000000000000e+00  2.1543512883576521e-03 -4.2895175836742990e-04 0.0000000000000000e+00  1.0676782733006959e-03 -2.1065917355127340e-04 0.0000000000000000e+00  0.0000000000000000e+00 0.0000000000000000e+00 0.0000000000000000e+00  0.0000000000000000e+00 0.0000000000000000e+00 0.0000000000000000e+00  -1.1683419834228562e-03 -1.4019095447052182e-04 0.0000000000000000e+00  -2.3669018882997647e-03 -2.8427877959420875e-04 0.0000000000000000e+00  -3.6274466114401657e-03 -4.3609404880928326e-04 0.0000000000000000e+00  -4.9848446295781938e-03 -5.9931262073020417e-04 0.0000000000000000e+00  -5.0434694759467179e-03 -2.6656685327628658e-04 0.0000000000000000e+00  -4.9849266544125057e-03 6.5478189833111008e-05 0.0000000000000000e+00  -3.1563260053546500e-03 2.7696175898301472e-05 0.0000000000000000e+00  -1.4157201522880128e-03 6.4410844008652147e-06 0.0000000000000000e+00  2.8242852699130665e-04 1.6368247410890361e-06 0.0000000000000000e+00  1.9814762796045654e-03 1.3141068260743952e-05 0.0000000000000000e+00  3.7247197733971892e-03 4.0769630968287786e-05 0.0000000000000000e+00  5.5575077941642220e-03 8.4211745732433349e-05 0.0000000000000000e+00  5.6188651918189884e-03 -3.1439761454661320e-04 0.0000000000000000e+00  5.5615745031560911e-03 -7.1216972934259903e-04 0.0000000000000000e+00  4.0589325598233477e-03 -5.1802241049060216e-04 0.0000000000000000e+00  2.6540504672436637e-03 -3.3764575626303686e-04 0.0000000000000000e+00  1.3117646140207654e-03 -1.6650791639584968e-04 0.0000000000000000e+00  0.0000000000000000e+00 0.0000000000000000e+00 0.0000000000000000e+00  0.0000000000000000e+00 0.0000000000000000e+00 0.0000000000000000e+00  -1.2588710875806155e-03 -7.6981236522711587e-05 0.0000000000000000e+00  -2.5528814600896095e-03 -1.5498790699558008e-04 0.0000000000000000e+00  -3.9185126231791453e-03 -2.3493254021468186e-04 0.0000000000000000e+00  -5.3949359612059300e-03 -3.1750224908153870e-04 0.0000000000000000e+00  -5.4619323614527784e-03 -2.6839551240638359e-04 0.0000000000000000e+00  -5.3939883884755726e-03 -2.2001831144389839e-04 0.0000000000000000e+00  -3.3985428395266787e-03 -2.3169873617966813e-04 0.0000000000000000e+00  -1.5029004216990181e-03 -2.3831730374467537e-04 0.0000000000000000e+00  3.4457746158945079e-04 -2.3951665106267304e-04 0.0000000000000000e+00  2.1936994252977839e-03 -2.3529321616237692e-04 0.0000000000000000e+00  4.0942831178397881e-03 -2.2598403622120587e-04 0.0000000000000000e+00  6.0980055094996466e-03 -2.1229834450559940e-04 0.0000000000000000e+00  6.1678498727234582e-03 -3.2218135875216859e-04 0.0000000000000000e+00  6.0998768562794767e-03 -4.3152893729742899e-04 0.0000000000000000e+00  4.4445039453989230e-03 -3.1814441411701983e-04 0.0000000000000000e+00  2.9022666045652266e-03 -2.0936667883744212e-04 0.0000000000000000e+00  1.4331847186823108e-03 -1.0384267159164982e-04 0.0000000000000000e+00  -1.4119321222728465e-11 -1.5785066843945273e-12 0.0000000000000000e+00  0.0000000000000000e+00 0.0000000000000000e+00 0.0000000000000000e+00  -1.2084392857519054e-03 -9.6766453383986084e-06 0.0000000000000000e+00  -2.4515143114766415e-03 -1.7944324568929197e-05 0.0000000000000000e+00  -3.7649589506877400e-03 -2.3264563894145329e-05 0.0000000000000000e+00  -5.1866991588930701e-03 -2.3836839132337238e-05 0.0000000000000000e+00  -5.2521735204412922e-03 -2.7285651236226723e-04 0.0000000000000000e+00  -5.1855448395853321e-03 -5.2263279962903593e-04 0.0000000000000000e+00  -3.2433210131738088e-03 -5.1126312767445638e-04 0.0000000000000000e+00  -1.3982472607246444e-03 -5.0466637764280025e-04 0.0000000000000000e+00  4.0017186526142772e-04 -5.0227372552397425e-04 0.0000000000000000e+00  2.2009453771787381e-03 -5.0398775206557020e-04 0.0000000000000000e+00  4.0531143121939461e-03 -5.1017313274450706e-04 0.0000000000000000e+00  6.0072731425539570e-03 -5.2166516166094216e-04 0.0000000000000000e+00  6.0752146643138286e-03 -3.2522071190291746e-04 0.0000000000000000e+00  6.0066393009860853e-03 -1.2852055324004893e-04 0.0000000000000000e+00  4.3758285339230195e-03 -9.9844658043132180e-05 0.0000000000000000e+00  2.8568309840137467e-03 -6.8082474269267200e-05 0.0000000000000000e+00  1.4105206893837818e-03 -3.4471611598565469e-05 0.0000000000000000e+00  0.0000000000000000e+00 0.0000000000000000e+00 0.0000000000000000e+00  0.0000000000000000e+00 0.0000000000000000e+00 0.0000000000000000e+00  -1.0190411833401419e-03 5.1994947136234978e-05 0.0000000000000000e+00  -2.0677740944547180e-03 1.0731356528274519e-04 0.0000000000000000e+00  -3.1767324595973197e-03 1.6941502930624909e-04 0.0000000000000000e+00  -4.3781182143184149e-03 2.4203633145266729e-04 0.0000000000000000e+00  -4.4342041257571701e-03 -2.7962559113725170e-04 0.0000000000000000e+00  -4.3773475178924643e-03 -8.0196484530242697e-04 0.0000000000000000e+00  -2.7012381271244389e-03 -7.7180608827893016e-04 0.0000000000000000e+00  -1.1077719767653119e-03 -7.5426402373930559e-04 0.0000000000000000e+00  4.4640345426373671e-04 -7.4866829725736236e-04 0.0000000000000000e+00  2.0035222440777265e-03 -7.5486443529273952e-04 0.0000000000000000e+00  3.6058612812001132e-03 -7.7321139251483530e-04 0.0000000000000000e+00  5.2969048546339112e-03 -8.0458497616794412e-04 0.0000000000000000e+00  5.3545753752207454e-03 -3.2451087192064172e-04 0.0000000000000000e+00  5.2937681035664661e-03 1.5566037674505560e-04 0.0000000000000000e+00  3.8582736797769298e-03 1.0609469887603817e-04 0.0000000000000000e+00  2.5196758455754923e-03 6.5794769947956290e-05 0.0000000000000000e+00  1.2442563121061025e-03 3.1443962594498587e-05 0.0000000000000000e+00  0.0000000000000000e+00 0.0000000000000000e+00 0.0000000000000000e+00  0.0000000000000000e+00 0.0000000000000000e+00 0.0000000000000000e+00  -7.1038817125105799e-04 1.0038350291034059e-04 0.0000000000000000e+00  -1.4421518944700456e-03 2.0545027310687737e-04 0.0000000000000000e+00  -2.2172574613503956e-03 3.2002302307501760e-04 0.0000000000000000e+00  -3.0587736331603066e-03 4.4920983155302696e-04 0.0000000000000000e+00  -3.0994703354315458e-03 -2.8822601741545475e-04 0.0000000000000000e+00  -3.0588112344279894e-03 -1.0262172802115227e-03 0.0000000000000000e+00  -1.8302644899878197e-03 -9.8204254624858090e-04 0.0000000000000000e+00  -6.6089766229140631e-04 -9.5623604095831222e-04 0.0000000000000000e+00  4.8093801852803965e-04 -9.4805552002134418e-04 0.0000000000000000e+00  1.6261436912734519e-03 -9.5730053848167213e-04 0.0000000000000000e+00  2.8056676891268684e-03 -9.8431121497889588e-04 0.0000000000000000e+00  4.0513005214631902e-03 -1.0299698844204923e-03 0.0000000000000000e+00  4.0923942970386897e-03 -3.2104888740861664e-04 0.0000000000000000e+00  4.0457841874672260e-03 3.8783193403688928e-04 0.0000000000000000e+00  2.9515348287089105e-03 2.7496362999003847e-04 0.0000000000000000e+00  1.9288409183331832e-03 1.7587372854593910e-04 0.0000000000000000e+00  9.5288483357920185e-04 8.5733889587073832e-05 0.0000000000000000e+00  0.0000000000000000e+00 0.0000000000000000e+00 0.0000000000000000e+00  0.0000000000000000e+00 0.0000000000000000e+00 0.0000000000000000e+00  -3.1565501631100476e-04 1.3005182164724645e-04 0.0000000000000000e+00  -6.4211371312002954e-04 2.6557480388315381e-04 0.0000000000000000e+00  -9.9050214602631526e-04 4.1218270511341609e-04 0.0000000000000000e+00  -1.3724816468929936e-03 5.7577734884127290e-04 0.0000000000000000e+00  -1.3937154074227609e-03 -2.9793219995743380e-04 0.0000000000000000e+00  -1.3735293088300751e-03 -1.1720193212616564e-03 0.0000000000000000e+00  -7.2423398664928161e-04 -1.1189785495185779e-03 0.0000000000000000e+00  -1.0465245798700380e-04 -1.0878770169581880e-03 0.0000000000000000e+00  5.0206567551982974e-04 -1.0779150688991922e-03 0.0000000000000000e+00  1.1124007894041615e-03 -1.0888507181083967e-03 0.0000000000000000e+00  1.7428806231070645e-03 -1.1209998073307909e-03 0.0000000000000000e+00  2.4104984079307266e-03 -1.1752369506521968e-03 0.0000000000000000e+00  2.4308597936064584e-03 -3.1562644204927555e-04 0.0000000000000000e+00  2.402