<?xml version="1.0"?>
<VTKFile type="UnstructuredGrid"  version="0.1"  >
<UnstructuredGrid>
<Piece  NumberOfPoints="589" NumberOfCells="1080">
<Points>
<DataArray  type="Float64"  NumberOfComponents="3"  format="ascii">-9 0 0  -8 0 0  -7 0 0  -6 0 0  -5 0 0  -4 0 0  -3 0 0  -2 0 0  -1 0 0  0 0 0  1 0 0  2 0 0  3 0 0  4 0 0  5 0 0  6 0 0  7 0 0  8 0 0  9 0 0  -9 2 0  -8.000001751705224 1.999996947564617 0  -7.000003745351555 1.999994277731725 0  -6.000006502828235 1.999992302243313 0  -5.000011176306844 1.99999115879529 0  -4.000006410301173 1.999993319455833 0  -3.000001424223818 1.999995417057756 0  -1.999998970467648 1.999997400104072 0  -0.9999985274333882 1.999998946042787 0  6.909399996261729e-07 1.999999551291141 0  0.999999919750455 1.999998888299044 0  2.00000039471107 1.999997036485646 0  3.000002997743195 1.999994692938161 0  4.000008127941912 1.999991927679511 0  5.000015711375735 1.999989982687398 0  6.00000985711211 1.999990889770592 0  7.000005982714095 1.999993166570028 0  8.000002876044022 1.99999635322963 0  9 2 0  -9.000000000004983 4 0  -8.000002535639711 3.999992364774856 0  -7.000004435390293 3.999985778125531 0  -6.000005341639452 3.999981276347041 0  -5.000005371348909 3.999979865942135 0  -3.999998226136625 3.999980600813567 0  -2.999993345541297 3.999986521556034 0  -1.999991959977631 3.999994347321677 0  -0.9999936145322776 4.000000600888532 0  3.078757459019574e-06 4.000002932482545 0  0.9999997657202722 4.000000402167542 0  1.999998126950139 3.999994108707104 0  2.999999869526988 3.999985520182072 0  4.0000055283948 3.999976491252006 0  5.000013776069396 3.999972117292506 0  6.000011794707451 3.999976300749733 0  7.000008894466745 3.999982693803155 0  8.000004829529059 3.999990866119176 0  9 4 0  -9 6 0  -8.000005863058897 5.999983587966909 0  -7.00000909944186 5.999968939302356 0  -6.00000768660595 5.999957885218611 0  -5.000001004854504 5.99995222853163 0  -3.999986898076861 5.999960753441869 0  -2.999980265028773 5.999979278223751 0  -1.999982263615442 5.999998867628416 0  -0.9999881079184486 6.000009929748055 0  5.744512085283388e-06 6.000012010028545 0  1.00000007339855 6.000007841747907 0  1.999995793245478 5.999996641196988 0  2.999994522958658 5.999977792118278 0  3.999998651397884 5.999957912278454 0  5.000011976145845 5.999947140774171 0  6.000017407833543 5.999952873652171 0  7.000016464898327 5.999965104360333 0  8.000009841209156 5.999981533116176 0  9 6 0  -9 8 0  -8.00001969640989 7.999967759004974 0  -7.000032359879588 7.999937723601279 0  -6.000031106898078 7.999912905974447 0  -5.000009870288883 7.999898297651464 0  -3.999983050792844 7.999938782249415 0  -2.999986475025899 7.999986793484322 0  -1.999995255046221 8.000011001453441 0  -0.9999955273574942 8.000014790457433 0  1.056752400889476e-05 8.00001604171352 0  1.000014880033835 8.000018410495382 0  2.00001264240193 8.000006803869175 0  3.000000283068382 7.999987081097263 0  3.999996395768773 7.999940187157136 0  5.000025152975118 7.999887581097924 0  6.000048518352491 7.999903457530054 0  7.000046756961753 7.999930724553652 0  8.000027721712179 7.999964049032532 0  9 8 0  -9 10 0  -8.000061655147269 9.999943112905658 0  -7.000111279055684 9.999885644941614 0  -6.000134454530939 9.999827102933915 0  -5.000111008511456 9.999767193133295 0  -4.000069269671562 9.999895873458804 0  -3.000073339423093 10.00000735574243 0  -2.000055016679175 9.999991526101679 0  -1.000018155998552 9.999986486737194 0  9.940361638655292e-06 9.99998525526572 0  1.000038346194364 9.999985023262246 0  2.000076697912469 9.999983056732081 0  3.00010976546914 10.0000253436513 0  4.000105450401012 9.999904629910112 0  5.000158513393755 9.999746324022267 0  6.000180119486606 9.999808492165666 0  7.000146133787223 9.999872122415383 0  8.000080340856956 9.999936063843302 0  9 10 0  -9 12 0  -8.000151709946005 11.99992080110972 0  -7.000295944618731 11.99983788060805 0  -6.000424196403163 11.9997468024638 0  -5.000525859412138 11.99964141140133 0  -4.000504552222871 11.99987258126252 0  -3.000520626434486 12.00010121902932 0  -2.00033578174701 12.00007749566377 0  -1.000134306732333 12.00006658902556 0  7.249542065574069e-05 12.00006801544026 0  1.000279292123289 12.00008256685977 0  2.000481014351906 12.00011355736012 0  3.000667264813579 12.00016896620792 0  4.000644500027032 11.99987935550303 0  5.000661975658386 11.99958723057061 0  6.000534004307916 11.99970770950244 0  7.000372697135481 11.99981229477918 0  8.000191125309216 11.99990811175165 0  9 12 0  -9 14 0  -8.000271607351078 13.99991338767573 0  -7.000544447964261 13.9998227674523 0  -6.000820132755407 13.99972378372893 0  -5.001101286597365 13.99961140240143 0  -4.001103879481361 13.99987674883993 0  -3.001102468851328 14.00014528592325 0  -2.000683179925628 14.00011222087003 0  -1.000271805362608 14.00009737922763 0  0.0001351066039210885 14.00009829599911 0  1.000540652951958 14.00011438148091 0  2.000947422085512 14.00014642514237 0  3.001357040162598 14.00019608227075 0  4.001359513347493 13.99986719185772 0  5.001364447553015 13.99953994861892 0  6.001021046744462 13.9996705630198 0  7.00068020916135 13.99978757760829 0  8.000340054235513 13.9998958952634 0  9 14 0  -9 16 0  -8.000386493285051 15.99992201347744 0  -7.000781444717918 15.99984112474846 0  -6.001193982740396 15.99975438036019 0  -5.001634640209018 15.99965877628845 0  -4.001650580000522 15.99987760100084 0  -3.001632514536323 16.00009490642497 0  -2.000999134690453 16.00007412146621 0  -1.000391537000264 16.0000651924811 0  0.0002032047295246483 16.00006795454568 0  1.000797254474575 16.00008241729768 0  2.001402690935537 16.00010889439515 0  3.002032275010993 16.00014794189864 0  4.002050193536087 15.99985787988019 0  5.002036453951907 15.99956731475415 0  6.001497519841739 15.99968785963784 0  7.000984796333253 15.99979767902198 0  8.000488462548015 15.99990054708733 0  9 16 0  -9 18 0  -8.000467465277426 17.99994224987494 0  -7.000947947078225 17.999882912698 0  -6.001455115095477 17.99982042905183 0  -5.002003956659307 17.99975330727072 0  -4.002028248087137 17.99987580192184 0  -3.002002208357077 17.99999782585167 0  -2.001212242994593 17.99998865809578 0  -1.000459966684881 17.99998630332769 0  0.0002740855636484502 17.9999908724513 0  1.001008460163582 18.00000245772213 0  2.001761678710826 18.00002114283335 0  3.002553133292546 18.00004696757954 0  4.002579926838888 17.99985049940854 0  5.002555926371985 17.99965422226372 0  6.00186878397897 17.99974808762893 0  7.001223591008261 17.99983560416416 0  8.000605249363527 17.99991886689338 0  9 18 0  -9 20 0  -8.000496295958419 19.99996883318866 0  -7.001007552964811 19.99993728878989 0  -6.001549301278398 19.99990503623719 0  -5.002138213836947 19.99987184062244 0  -4.002165913698269 19.99987323552157 0  -3.002136267824133 19.99987416154158 0  -2.001274919677956 19.99987598656083 0  -1.000455645211778 19.9998797642021 0  0.0003436876912215875 19.99988577251647 0  1.001144457374206 19.99989414501871 0  2.001968068299518 19.99990487684538 0  3.002836739044351 19.99991781195303 0  4.002867572652941 19.99984611323168 0  5.002838369538711 19.9997744917348 0  6.002071869436112 19.99983372031755 0  7.001354741797671 19.99989054948224 0  8.0006695382744 19.99994570419081 0  8.999999999970038 19.99999999999694 0  -9 22 0  -8.00046521120688 21.99999692589011 0  -7.000945040009864 21.99999449820329 0  -6.001454570791781 21.99999341771525 0  -5.002009820344265 21.99999449507505 0  -4.002036712880159 21.99986972036266 0  -3.002007940909444 21.99974448567689 0  -2.001169638476529 21.99975551886853 0  -1.000371710647284 21.99976431885137 0  0.000407554882806388 21.99977123309564 0  1.001189267972111 21.99977641193285 0  2.001994584561125 21.99977981297468 0  3.002845357636722 21.99978119800171 0  4.002875756301849 21.99984393464558 0  5.002845770098985 21.99990664991264 0  6.002077098725366 21.99992894950913 0  7.001357972861693 21.99995219024867 0  8.000671056730635 21.99997597266522 0  9 22 0  -9 24 0  -8.000375579096508 24.00002243396085 0  -7.000763556744582 24.00004632061856 0  -6.001176693988884 24.00007317011328 0  -5.001628449943916 24.00010460883367 0  -4.001651171309421 23.99986548698048 0  -3.001626811860513 23.99962595245466 0  -2.000903193326357 23.99964396926967 0  -1.000213277770539 23.99965640331938 0  0.0004616472811383164 23.99966362287273 0  1.001139848450146 23.99966577753793 0  2.001839648360038 23.9996627997622 0  3.002579927188503 23.99965440368435 0  4.002606248535091 23.99984364866271 0  5.002579192168517 24.00003281974885 0  6.001883799952473 24.00002040975921 0  7.001232157440591 24.00001166069439 0  8.000609042449602 24.00000525788285 0  9 24 0  -9 26 0  -8.000236256827822 26.00004213403732 0  -7.000481270141696 26.00008629497487 0  -6.000744040766333 26.00013456927169 0  -5.00103404225325 26.00018916372245 0  -4.00105003566356 25.99986080094338 0  -3.00103279286082 25.99953207957362 0  -2.0005022703087 25.99955471817908 0  -0.999995030543587 25.99956931377712 0  0.0005026522919443961 25.99957624075505 0  1.001004218082466 25.99957564160382 0  2.001523168301126 25.99956742814318 0  3.00207341122255 25.99955128001091 0  4.002092848985402 25.99984490257342 0  5.002071606310025 26.0001383945668 0  6.001515168627876 26.00009722265948 0  7.000992030438874 26.00006174408021 0  8.000490644670407 26.00002996245207 0  9 26 0  -9 28 0  -8.000061798732279 28.00005372954143 0  -7.000127755709426 28.00010981962876 0  -6.00020215492894 28.00017069204477 0  -5.000289511623193 28.00023889150502 0  -4.000297065156838 27.99985597898041 0  -3.000288759750259 27.99947277395975 0  -2.00000854192045 27.9994976034514 0  -0.9997387000374137 27.99951286389692 0  0.0005281398517203403 27.99951892855234 0  1.000799229023325 27.99951592975601 0  2.001081881686934 27.99950375975175 0  3.001383659975121 27.99948207031096 0  4.001394284030155 27.99984736999085 0  5.001380916980777 28.00021249301764 0  6.001013007448077 28.0001512603101 0  7.000664687744814 28.00009703946007 0
[...]
<PointData  Vectors="f_42"> 
<DataArray  type="Float64"  Name="f_42"  NumberOfComponents="3" format="ascii">0.0000000000000000e+00 0.0000000000000000e+00 0.0000000000000000e+00  0.0000000000000000e+00 0.0000000000000000e+00 0.0000000000000000e+00  0.0000000000000000e+00 0.0000000000000000e+00 0.0000000000000000e+00  0.0000000000000000e+00 0.0000000000000000e+00 0.0000000000000000e+00  0.0000000000000000e+00 0.0000000000000000e+00 0.0000000000000000e+00  0.0000000000000000e+00 0.0000000000000000e+00 0.0000000000000000e+00  0.0000000000000000e+00 0.0000000000000000e+00 0.0000000000000000e+00  0.0000000000000000e+00 0.0000000000000000e+00 0.0000000000000000e+00  0.0000000000000000e+00 0.0000000000000000e+00 0.0000000000000000e+00  0.0000000000000000e+00 0.0000000000000000e+00 0.0000000000000000e+00  0.0000000000000000e+00 0.0000000000000000e+00 0.0000000000000000e+00  0.0000000000000000e+00 0.0000000000000000e+00 0.0000000000000000e+00  0.0000000000000000e+00 0.0000000000000000e+00 0.0000000000000000e+00  0.0000000000000000e+00 0.0000000000000000e+00 0.0000000000000000e+00  0.0000000000000000e+00 0.0000000000000000e+00 0.0000000000000000e+00  0.0000000000000000e+00 0.0000000000000000e+00 0.0000000000000000e+00  0.0000000000000000e+00 0.0000000000000000e+00 0.0000000000000000e+00  0.0000000000000000e+00 0.0000000000000000e+00 0.0000000000000000e+00  0.0000000000000000e+00 0.0000000000000000e+00 0.0000000000000000e+00  0.0000000000000000e+00 0.0000000000000000e+00 0.0000000000000000e+00  -1.7517052304062929e-06 -3.0524353818425311e-06 0.0000000000000000e+00  -3.7453515502860625e-06 -5.7222682751397262e-06 0.0000000000000000e+00  -6.5028282344424684e-06 -7.6977566866476033e-06 0.0000000000000000e+00  -1.1176306854347973e-05 -8.8412047117908526e-06 0.0000000000000000e+00  -6.4103011718877900e-06 -6.6805441660109015e-06 0.0000000000000000e+00  -1.4242238214156875e-06 -4.5829422432895284e-06 0.0000000000000000e+00  1.0295323533639832e-06 -2.5998959281924196e-06 0.0000000000000000e+00  1.4725666106409828e-06 -1.0539572120013633e-06 0.0000000000000000e+00  6.9093999962617288e-07 -4.4870886114943228e-07 0.0000000000000000e+00  -8.0249544372140915e-08 -1.1117009552076570e-06 0.0000000000000000e+00  3.9471106941529753e-07 -2.9635143518819025e-06 0.0000000000000000e+00  2.9977431963154250e-06 -5.3070618405879485e-06 0.0000000000000000e+00  8.1279419149893852e-06 -8.0723204891748173e-06 0.0000000000000000e+00  1.5711375733759189e-05 -1.0017312601957634e-05 0.0000000000000000e+00  9.8571121072549137e-06 -9.1102294078398375e-06 0.0000000000000000e+00  5.9827140907101952e-06 -6.8334299728281318e-06 0.0000000000000000e+00  2.8760440128431591e-06 -3.6467703713495118e-06 0.0000000000000000e+00  0.0000000000000000e+00 0.0000000000000000e+00 0.0000000000000000e+00  -4.9820587634006413e-12 0.0000000000000000e+00 0.0000000000000000e+00  -2.5356397046349210e-06 -7.6352251460692133e-06 0.0000000000000000e+00  -4.4353902885298134e-06 -1.4221874468856876e-05 0.0000000000000000e+00  -5.3416394528447656e-06 -1.8723652959996683e-05 0.0000000000000000e+00  -5.3713489148568991e-06 -2.0134057863222220e-05 0.0000000000000000e+00  1.7738633733159980e-06 -1.9399186432401169e-05 0.0000000000000000e+00  6.6544587017543561e-06 -1.3478443964406254e-05 0.0000000000000000e+00  8.0400223689008389e-06 -5.6526783242121646e-06 0.0000000000000000e+00  6.3854677224149383e-06 6.0088853214956680e-07 0.0000000000000000e+00  3.0787574590195737e-06 2.9324825460029912e-06 0.0000000000000000e+00  -2.3427972760099086e-07 4.0216754887678181e-07 0.0000000000000000e+00  -1.8730498602241270e-06 -5.8912928965254733e-06 0.0000000000000000e+00  -1.3047300952278327e-07 -1.4479817928395686e-05 0.0000000000000000e+00  5.5283947976747769e-06 -2.3508747991854086e-05 0.0000000000000000e+00  1.3776069391772213e-05 -2.7882707491902863e-05 0.0000000000000000e+00  1.1794707444673166e-05 -2.3699250263913117e-05 0.0000000000000000e+00  8.8944667472579358e-06 -1.7306196845248343e-05 0.0000000000000000e+00  4.8295290665766900e-06 -9.1338808263496573e-06 0.0000000000000000e+00  0.0000000000000000e+00 0.0000000000000000e+00 0.0000000000000000e+00  0.0000000000000000e+00 0.0000000000000000e+00 0.0000000000000000e+00  -5.8630589114667850e-06 -1.6412033097531485e-05 0.0000000000000000e+00  -9.0994418556873524e-06 -3.1060697642609010e-05 0.0000000000000000e+00  -7.6866059569819511e-06 -4.2114781385426473e-05 0.0000000000000000e+00  -1.0048545033237467e-06 -4.7771468363800299e-05 0.0000000000000000e+00  1.3101923139503050e-05 -3.9246558126137168e-05 0.0000000000000000e+00  1.9734971228363441e-05 -2.0721776243964943e-05 0.0000000000000000e+00  1.7736384557944171e-05 -1.1323715925978225e-06 0.0000000000000000e+00  1.1892081551377028e-05 9.9297480570340932e-06 0.0000000000000000e+00  5.7445120852833879e-06 1.2010028540385113e-05 0.0000000000000000e+00  7.3398549430292247e-08 7.8417479110049836e-06 0.0000000000000000e+00  -4.2067545207233969e-06 -3.3588030158309317e-06 0.0000000000000000e+00  -5.4770413434364481e-06 -2.2207881716309196e-05 0.0000000000000000e+00  -1.3486021173614917e-06 -4.2087721545947128e-05 0.0000000000000000e+00  1.1976145847652535e-05 -5.2859225828367979e-05 0.0000000000000000e+00  1.7407833534651648e-05 -4.7126347826612370e-05 0.0000000000000000e+00  1.6464898324142382e-05 -3.4895639668016937e-05 0.0000000000000000e+00  9.8412091554480162e-06 -1.8466883824218888e-05 0.0000000000000000e+00  0.0000000000000000e+00 0.0000000000000000e+00 0.0000000000000000e+00  0.0000000000000000e+00 0.0000000000000000e+00 0.0000000000000000e+00  -1.9696409902106712e-05 -3.2240995022107998e-05 0.0000000000000000e+00  -3.2359879590689740e-05 -6.2276398722964569e-05 0.0000000000000000e+00  -3.1106898076899234e-05 -8.7094025558965334e-05 0.0000000000000000e+00  -9.8702888824689381e-06 -1.0170234852327024e-04 0.0000000000000000e+00  1.6949207157022679e-05 -6.1217750579906584e-05 0.0000000000000000e+00  1.3524974099881175e-05 -1.3206515681842933e-05 0.0000000000000000e+00  4.7449537780919439e-06 1.1001453442120874e-05 0.0000000000000000e+00  4.4726425054136143e-06 1.4790457435208866e-05 0.0000000000000000e+00  1.0567524008894756e-05 1.6041713515290469e-05 0.0000000000000000e+00  1.4880033836519984e-05 1.8410495369187793e-05 0.0000000000000000e+00  1.2642401930680623e-05 6.8038691638644431e-06 0.0000000000000000e+00  2.8306838009689502e-07 -1.2918902731058021e-05 0.0000000000000000e+00  -3.6042312277548305e-06 -5.9812842863421645e-05 0.0000000000000000e+00  2.5152975111249920e-05 -1.1241890208464293e-04 0.0000000000000000e+00  4.8518352492444411e-05 -9.6542469946452750e-05 0.0000000000000000e+00  4.6756961754339509e-05 -6.9275446357969700e-05 0.0000000000000000e+00  2.7721712170690992e-05 -3.5950967468640404e-05 0.0000000000000000e+00  0.0000000000000000e+00 0.0000000000000000e+00 0.0000000000000000e+00  0.0000000000000000e+00 0.0000000000000000e+00 0.0000000000000000e+00  -6.1655147266728480e-05 -5.6887094336647414e-05 0.0000000000000000e+00  -1.1127905568091968e-04 -1.1435505838368920e-04 0.0000000000000000e+00  -1.3445453094102931e-04 -1.7289706608041310e-04 0.0000000000000000e+00  -1.1100851146075175e-04 -2.3280686670484139e-04 0.0000000000000000e+00  -6.9269671558319334e-05 -1.0412654119460806e-04 0.0000000000000000e+00  -7.3339423094434403e-05 7.3557424354542752e-06 0.0000000000000000e+00  -5.5016679178623345e-05 -8.4738983121017542e-06 0.0000000000000000e+00  -1.8155998552187133e-05 -1.3513262813202168e-05 0.0000000000000000e+00  9.9403616386552923e-06 -1.4744734286145874e-05 0.0000000000000000e+00  3.8346194366112162e-05 -1.4976737753500525e-05 0.0000000000000000e+00  7.6697912470184617e-05 -1.6943267924122074e-05 0.0000000000000000e+00  1.0976546913765645e-04 2.5343651294633901e-05 0.0000000000000000e+00  1.0545040101385952e-04 -9.5370089888558148e-05 0.0000000000000000e+00  1.5851339376184363e-04 -2.5367597773827915e-04 0.0000000000000000e+00  1.8011948661356028e-04 -1.9150783433223340e-04 0.0000000000000000e+00  1.4613378722200910e-04 -1.2787758461931857e-04 0.0000000000000000e+00  8.0340856948611945e-05 -6.3936156694310731e-05 0.0000000000000000e+00  0.0000000000000000e+00 0.0000000000000000e+00 0.0000000000000000e+00  0.0000000000000000e+00 0.0000000000000000e+00 0.0000000000000000e+00  -1.5170994600342141e-04 -7.9198890278054412e-05 0.0000000000000000e+00  -2.9594461873154958e-04 -1.6211939195155551e-04 0.0000000000000000e+00  -4.2419640316484575e-04 -2.5319753618126311e-04 0.0000000000000000e+00  -5.2585941213386018e-04 -3.5858859866468934e-04 0.0000000000000000e+00  -5.0455222287329286e-04 -1.2741873747275899e-04 0.0000000000000000e+00  -5.2062643448698963e-04 1.0121902932595572e-04 0.0000000000000000e+00  -3.3578174700938079e-04 7.7495663772087156e-05 0.0000000000000000e+00  -1.3430673233184718e-04 6.6589025550684583e-05 0.0000000000000000e+00  7.2495420655740685e-05 6.8015440273061612e-05 0.0000000000000000e+00  2.7929212328794696e-04 8.2566859772603354e-05 0.0000000000000000e+00  4.8101435190366320e-04 1.1355736011986174e-04 0.0000000000000000e+00  6.6726481357808867e-04 1.6896620790333300e-04 0.0000000000000000e+00  6.4450002703419671e-04 -1.2064449695317369e-04 0.0000000000000000e+00  6.6197565837959669e-04 -4.1276942938173715e-04 0.0000000000000000e+00  5.3400430791606377e-04 -2.9229049755091243e-04 0.0000000000000000e+00  3.7269713548792487e-04 -1.8770522081980979e-04 0.0000000000000000e+00  1.9112530920785845e-04 -9.1888248349984944e-05 0.0000000000000000e+00  0.0000000000000000e+00 0.0000000000000000e+00 0.0000000000000000e+00  0.0000000000000000e+00 0.0000000000000000e+00 0.0000000000000000e+00  -2.7160735108973686e-04 -8.6612324271104045e-05 0.0000000000000000e+00  -5.4444796426461421e-04 -1.7723254769697242e-04 0.0000000000000000e+00  -8.2013275541031232e-04 -2.7621627107468616e-04 0.0000000000000000e+00  -1.1012865973691057e-03 -3.8859759857416600e-04 0.0000000000000000e+00  -1.1038794813631142e-03 -1.2325116005705889e-04 0.0000000000000000e+00  -1.1024688513270103e-03 1.4528592324973235e-04 0.0000000000000000e+00  -6.8317992562657659e-04 1.1222087002458641e-04 0.0000000000000000e+00  -2.7180536260686664e-04 9.7379227625400276e-05 0.0000000000000000e+00  1.3510660392108853e-04 9.8295999104100267e-05 0.0000000000000000e+00  5.4065295195657431e-04 1.1438148092157115e-04 0.0000000000000000e+00  9.4742208551638614e-04 1.4642514237378070e-04 0.0000000000000000e+00  1.3570401625985344e-03 1.9608227073699514e-04 0.0000000000000000e+00  1.3595133474851525e-03 -1.3280814229140324e-04 0.0000000000000000e+00  1.3644475530190932e-03 -4.6005138107542995e-04 0.0000000000000000e+00  1.0210467444605946e-03 -3.2943698020727213e-04 0.0000000000000000e+00  6.8020916134810402e-04 -2.1242239172133132e-04 0.0000000000000000e+00  3.4005423551149871e-04 -1.0410473660492624e-04 0.0000000000000000e+00  0.0000000000000000e+00 0.0000000000000000e+00 0.0000000000000000e+00  0.0000000000000000e+00 0.0000000000000000e+00 0.0000000000000000e+00  -3.8649328503789863e-04 -7.7986522556726265e-05 0.0000000000000000e+00  -7.8144471791974574e-04 -1.5887525154161563e-04 0.0000000000000000e+00  -1.1939827403946405e-03 -2.4561963979810993e-04 0.0000000000000000e+00  -1.6346402090185034e-03 -3.4122371155710776e-04 0.0000000000000000e+00  -1.6505800005205350e-03 -1.2239899914729879e-04 0.0000000000000000e+00  -1.6325145363228527e-03 9.4906424970931210e-05 0.0000000000000000e+00  -9.9913469045371291e-04 7.4121466203360615e-05 0.0000000000000000e+00  -3.9153700026411676e-04 6.5192481096209063e-05 0.0000000000000000e+00  2.0320472952464825e-04 6.7954545678157886e-05 0.0000000000000000e+00  7.9725447457395344e-04 8.2417297675894832e-05 0.0000000000000000e+00  1.4026909355339819e-03 1.0889439514715816e-04 0.0000000000000000e+00  2.0322750109976117e-03 1.4794189862913406e-04 0.0000000000000000e+00  2.0501935360851941e-03 -1.4212011979316993e-04 0.0000000000000000e+00  2.0364539519117063e-03 -4.3268524585586869e-04 0.0000000000000000e+00  1.4975198417450585e-03 -3.1214036216070814e-04 0.0000000000000000e+00  9.8479633325027635e-04 -2.0232097802083918e-04 0.0000000000000000e+00  4.8846254801855713e-04 -9.9452912680161897e-05 0.0000000000000000e+00  0.0000000000000000e+00 0.0000000000000000e+00 0.0000000000000000e+00  0.0000000000000000e+00 0.0000000000000000e+00 0.0000000000000000e+00  -4.6746527741107157e-04 -5.7750125037390897e-05 0.0000000000000000e+00  -9.4794707822533190e-04 -1.1708730198890391e-04 0.0000000000000000e+00  -1.4551150954763316e-03 -1.7957094816814704e-04 0.0000000000000000e+00  -2.0039566593090473e-03 -2.4669272926748431e-04 0.0000000000000000e+00  -2.0282480871355686e-03 -1.2419807817910786e-04 0.0000000000000000e+00  -2.0022083570771475e-03 -2.1741483158861334e-06 0.0000000000000000e+00  -1.2122429945914273e-03 -1.1341904223276260e-05 0.0000000000000000e+00  -4.5996668488390433e-04 -1.3696672317342951e-05 0.0000000000000000e+00  2.7408556364845015e-04 -9.1275486953168492e-06 0.0000000000000000e+00  1.0084601635826709e-03 2.4577221309540092e-06 0.0000000000000000e+00  1.7616787108238172e-03 2.1142833339729256e-05 0.0000000000000000e+00  2.5531332925474454e-03 4.6967579522303897e-05 0.0000000000000000e+00  2.5799268388893154e-03 -1.4950059147004463e-04 0.0000000000000000e+00  2.5559263719853015e-03 -3.4577773630815357e-04 0.0000000000000000e+00  1.8687839789753831e-03 -2.5191237108515444e-04 0.0000000000000000e+00  1.2235910082680774e-03 -1.6439583583519231e-04 0.0000000000000000e+00  6.0524936352761131e-04 -8.1133106609864041e-05 0.0000000000000000e+00  0.0000000000000000e+00 0.0000000000000000e+00 0.0000000000000000e+00  0.0000000000000000e+00 0.0000000000000000e+00 0.0000000000000000e+00  -4.9629595840873996e-04 -3.1166811344314527e-05 0.0000000000000000e+00  -1.0075529648100802e-03 -6.2711210104711166e-05 0.0000000000000000e+00  -1.5493012784032120e-03 -9.4963762788711107e-05 0.0000000000000000e+00  -2.1382138369487737e-03 -1.2815937754760617e-04 0.0000000000000000e+00  -2.1659136982676908e-03 -1.2676447842393509e-04 0.0000000000000000e+00  -2.1362678241368532e-03 -1.2583845842627862e-04 0.0000000000000000e+00  -1.2749196779561671e-03 -1.2401343917462976e-04 0.0000000000000000e+00  -4.5564521177835556e-04 -1.2023579790969288e-04 0.0000000000000000e+00  3.4368769122158747e-04 -1.1422748349986852e-04 0.0000000000000000e+00  1.1444573742060771e-03 -1.0585498128488548e-04 0.0000000000000000e+00  1.9680682995223096e-03 -9.5123154621386919e-05 0.0000000000000000e+00  2.8367390443531826e-03 -8.2188046995272792e-05 0.0000000000000000e+00  2.8675726529441216e-03 -1.5388676833944626e-04 0.0000000000000000e+00  2.8383695387095790e-03 -2.2550826518658566e-04 0.0000000000000000e+00  2.0718694361109109e-03 -1.6627968246934343e-04 0.0000000000000000e+00  1.3547417976700351e-03 -1.0945051775910404e-04 0.0000000000000000e+00  6.6953827438225619e-04 -5.4295809214727318e-05 0.0000000000000000e+00  -2.9962454427066656e-11 -3.0442310872014000e-12 0.0000000000000000e+00  0.0000000000000000e+00 0.0000000000000000e+00 0.0000000000000000e+00  -4.6521120687476958e-04 -3.0741098907450383e-06 0.0000000000000000e+00  -9.4504000986725823e-04 -5.5017967112513113e-06 0.0000000000000000e+00  -1.4545707917817715e-03 -6.5822847520912147e-06 0.0000000000000000e+00  -2.0098203442623307e-03 -5.5049249434840090e-06 0.0000000000000000e+00  -2.0367128801621307e-03 -1.3027963732417956e-04 0.0000000000000000e+00  -2.0079409094462927e-03 -2.5551432310957271e-04 0.0000000000000000e+00  -1.1696384765242690e-03 -2.4448113144197374e-04 0.0000000000000000e+00  -3.7171064728456127e-04 -2.3568114862501893e-04 0.0000000000000000e+00  4.0755488280638796e-04 -2.2876690437344363e-04 0.0000000000000000e+00  1.1892679721106532e-03 -2.2358806717119302e-04 0.0000000000000000e+00  1.9945845611250446e-03 -2.2018702534740053e-04 0.0000000000000000e+00  2.8453576367214834e-03 -2.1880199830194750e-04 0.0000000000000000e+00  2.8757563018527669e-03 -1.5606535440254821e-04 0.0000000000000000e+00  2.8457700989845680e-03 -9.3350087356958343e-05 0.0000000000000000e+00  2.0770987253630403e-03 -7.1050490864914124e-05 0.0000000000000000e+00  1.3579728616875660e-03 -4.7809751314811596e-05 0.0000000000000000e+00  6.7105673063354624e-04 -2.4027334763091124e-05 0.0000000000000000e+00  0.0000000000000000e+00 0.0000000000000000e+00 0.0000000000000000e+00  0.0000000000000000e+00 0.0000000000000000e+00 0.0000000000000000e+00  -3.7557909649666723e-04 2.2433960839386953e-05 0.0000000000000000e+00  -7.6355674458469282e-04 4.6320618576101545e-05 0.0000000000000000e+00  -1.1766939888895717e-03 7.3170113286106928e-05 0.0000000000000000e+00  -1.6284499439066626e-03 1.0460883365338170e-04 0.0000000000000000e+00  -1.6511713094217433e-03 -1.3451301950870737e-04 0.0000000000000000e+00  -1.6268118605124947e-03 -3.7404754535503209e-04 0.0000000000000000e+00  -9.0319332635465180e-04 -3.5603073033584060e-04 0.0000000000000000e+00  -2.1327777053947863e-04 -3.4359668061982395e-04 0.0000000000000000e+00  4.6164728113831644e-04 -3.3637712727179305e-04 0.0000000000000000e+00  1.1398484501436736e-03 -3.3422246207594870e-04 0.0000000000000000e+00  1.8396483600426530e-03 -3.3720023778415512e-04 0.0000000000000000e+00  2.5799271885017035e-03 -3.4559631564638391e-04 0.0000000000000000e+00  2.6062485350807569e-03 -1.5635133729032395e-04 0.0000000000000000e+00  2.5791921685162089e-03 3.2819748837699618e-05 0.0000000000000000e+00  1.8837999524748603e-03 2.0409759228502903e-05 0.0000000000000000e+00  1.2321574405855685e-03 1.1660694381445188e-05 0.0000000000000000e+00  6.0904244960480539e-04 5.2578828492999412e-06 0.0000000000000000e+00  0.0000000000000000e+00 0.0000000000000000e+00 0.0000000000000000e+00  0.0000000000000000e+00 0.0000000000000000e+00 0.0000000000000000e+00  -2.3625682782970844e-04 4.2134037319970743e-05 0.0000000000000000e+00  -4.8127014169920191e-04 8.6294974864010640e-05 0.0000000000000000e+00  -7.4404076633047321e-04 1.3456927168471497e-04 0.0000000000000000e+00  -1.0340422532453979e-03 1.8916372245617768e-04 0.0000000000000000e+00  -1.0500356635634296e-03 -1.3919905661676995e-04 0.0000000000000000e+00  -1.0327928608173851e-03 -4.6792042637326377e-04 0.0000000000000000e+00  -5.0227030870200133e-04 -4.4528182092071352e-04 0.0000000000000000e+00  4.9694564138642622e-06 -4.3068622285818758e-04 0.0000000000000000e+00  5.0265229194439609e-04 -4.2375924494198603e-04 0.0000000000000000e+00  1.0042180824660178e-03 -4.2435839616845552e-04 0.0000000000000000e+00  1.5231683011262900e-03 -4.3257185685099850e-04 0.0000000000000000e+00  2.0734112225475631e-03 -4.4871998908420840e-04 0.0000000000000000e+00  2.0928489854046307e-03 -1.5509742657298536e-04 0.0000000000000000e+00  2.0716063100201139e-03 1.3839456680885131e-04 0.0000000000000000e+00  1.5151686278742406e-03 9.7222659461915955e-05 0.0000000000000000e+00  9.9203043887248835e-04 6.1744080216714954e-05 0.0000000000000000e+00  4.9064467041399335e-04 2.9962452091462694e-05 0.0000000000000000e+00  0.0000000000000000e+00 0.0000000000000000e+00 0.0000000000000000e+00  0.0000000000000000e+00 0.0000000000000000e+00 0.0000000000000000e+00  -6.1798732275653330e-05 5.3729541440264802e-05 0.0000000000000000e+00  -1.2775570942704975e-04 1.0981962876991970e-04 0.0000000000000000e+00  -2.0215492894218732e-04 1.7069204477083530e-04 0.0000000000000000e+00  -2.8951162319186210e-04 2.3889150501069095e-04 0.0000000000000000e+00  -2.9706515684263616e-04 -1.4402101959971506e-04 0.0000000000000000e+00  -2.8875975025751516e-04 -5.2722604027710196e-04 0.0000000000000000e+00  -8.5419204513047329e-06 -5.0239654864146939e-04 0.0000000000000000e+00  2.6129996258600206e-04 -4.8713610308376808e-04 0.0000000000000000e+00  5.2813985172034026e-04 -4.8107144768400094e-04 0.0000000000000000e+00  7.9922902332532945e-04 -4.8407024399728778e-04 0.0000000000000000e+00  1.0818816869354413e-03 -4.9624024824346431e-04 0.0000000000000000e+00  1.3836599751253877e-03 -5.1792968903219283e-04 0.0000000000000000e+00  1.3942840301521772e-03 -1.5263000915116554e-04 0.0000000000000000e+00  1.380916