<?xml version="1.0"?>
<VTKFile type="UnstructuredGrid"  version="0.1"  >
<UnstructuredGrid>
<Piece  NumberOfPoints="589" NumberOfCells="1080">
<Points>
<DataArray  type="Float64"  NumberOfComponents="3"  format="ascii">-9 0 0  -8 0 0  -7 0 0  -6 0 0  -5 0 0  -4 0 0  -3 0 0  -2 0 0  -1 0 0  0 0 0  1 0 0  2 0 0  3 0 0  4 0 0  5 0 0  6 0 0  7 0 0  8 0 0  9 0 0  -9 2 0  -8.000004136818161 1.999993312452572 0  -7.000008728873388 1.999987471534157 0  -6.000014831191359 1.999983167822286 0  -5.000024841244067 1.999980712107785 0  -4.000014374146337 1.999985469340203 0  -3.000003568410537 1.999990116098514 0  -1.999998327381044 1.999994530006754 0  -0.9999975270677927 1.999998004327418 0  5.246392062189891e-07 1.999999468423356 0  0.9999984636146561 1.999998248374977 0  1.999998881656213 1.999994572470924 0  3.000003559181973 1.999990015139545 0  4.000013145261683 1.999984948589606 0  5.00002718524806 1.999982265860193 0  6.000016714293933 1.999983349736103 0  7.000010050259389 1.999987292942862 0  8.000004820623442 1.999993158099782 0  9 2 0  -9.000000000004983 4 0  -8.000006452641438 3.999983238650449 0  -7.000011416722542 3.999968794433651 0  -6.000014031413966 3.999958943760205 0  -5.000014506302191 3.99995586977887 0  -3.999998986803079 3.999957886435183 0  -2.999988551735964 3.999971122916713 0  -1.999985846365266 3.999988466500346 0  -0.9999898542728246 4.000002397197519 0  2.492757551826854e-06 4.000007853391968 0  0.9999947366594583 4.000002986758908 0  1.999990409870761 3.999990313946573 0  2.999993071457805 3.999973113317341 0  4.000003826149639 3.999955501082546 0  5.000020032232777 3.999948531165266 0  6.000018200798961 3.999955262381498 0  7.000014362805062 3.99996689844044 0  8.000008005038566 3.999982409588394 0  9 4 0  -9 6 0  -8.000014722383895 5.999963897640918 0  -7.000023502121438 5.99993174439256 0  -6.000021790829769 5.999907614135289 0  -5.000008253611987 5.999895448272028 0  -3.999977661465794 5.999914914208556 0  -2.999963639726425 5.999956201033774 0  -1.999968856342214 5.999999629825044 0  -0.9999823652216776 6.00002390648324 0  3.7748270271824e-06 6.000028646064997 0  0.9999911774481707 6.000020284029187 0  1.999981575518272 5.999997430313694 0  2.999978178284433 5.999958866319707 0  3.999985988866435 5.999918601618254 0  5.000013172367142 5.999897884665656 0  6.000027713555585 5.999907556906491 0  7.000028754022959 5.999931005051049 0  8.000017777914842 5.99996334543459 0  9 6 0  -9 8 0  -8.000046759009201 7.999928766341524 0  -7.000077549286464 7.999862609061512 0  -6.000076852445598 7.999808433619017 0  -5.00003126622325 7.999777636278468 0  -3.999972272401903 7.999868596187357 0  -2.999982044402981 7.999975855358353 0  -2.000003284267392 8.00002875301711 0  -1.000004814672503 8.00003556941898 0  8.356567446868396e-06 8.000037673180836 0  1.000017961300725 8.000042982304912 0  2.000013448167839 8.000019626394767 0  2.999987009251296 7.999979939055338 0  3.99997816716316 7.999883035682417 0  5.000038129421517 7.999773897512305 0  6.000091224279793 7.999804757582626 0  7.000091205688057 7.999859550287042 0  8.000054752887442 7.999927030357871 0  9 8 0  -9 10 0  -8.000142639840316 9.99987335440859 0  -7.000257511425238 9.999745584954486 0  -6.00031143900233 9.999615804468243 0  -5.000258155633157 9.999483678544603 0  -4.000165117417967 9.999776114611253 0  -3.000178316491526 10.00002821687471 0  -2.000139680817719 9.999987348666378 0  -1.000057910564399 9.999974254540543 0  3.058646455764002e-06 9.999971049605875 0  1.000063993215598 9.999971037822366 0  2.000145668971815 9.999968456979129 0  3.000216807061284 10.00006135923696 0  4.000207405369118 9.999809439122112 0  5.000318014924277 9.999477700395538 0  6.000367117721051 9.999606283266473 0  7.000299348842474 9.999737377324131 0  8.000164898197747 9.999868776953759 0  9 10 0  -9 12 0  -8.000349452223405 11.99982249057532 0  -7.00068101815886 11.99963669368376 0  -6.000974422586344 11.99943271136082 0  -5.001204465247226 11.99919676717393 0  -4.001156757156514 11.99972771071795 0  -3.00119726908054 12.00025318745707 0  -2.000803434254767 12.00019298314617 0  -1.000368542380866 12.00016203571959 0  8.107066977313616e-05 12.00015904206919 0  1.000533355776894 12.00018537719536 0  2.000977629812436 12.00024789156821 0  3.001392507350463 12.00036344922496 0  4.001344420523035 11.99975799789893 0  5.001378300065854 11.99914742837978 0  6.001110142944183 11.99939789383901 0  7.00077404051078 11.99961406178393 0  8.000396723842133 11.99981127941327 0  9 12 0  -9 14 0  -8.000627519514888 13.99980483565871 0  -7.001256705770542 13.9996006463601 0  -6.001890056781972 13.99937761501656 0  -5.002532266247732 13.99912437335591 0  -4.002538511619827 13.99974160381542 0  -3.002539923402237 14.00036648786363 0  -2.001631965833598 14.00028169975446 0  -1.00073828139134 14.00023809900576 0  0.0001485027271634924 14.00022981226408 0  1.001035249245083 14.00025511862595 0  2.001928066095306 14.00031532548484 0  3.002831353593332 14.00041362890166 0  4.002837510812688 13.99973394406852 0  5.002844308738303 13.99905811923739 0  6.002124165908522 13.99932695205985 0  7.001413128327678 13.99956670231769 0  8.00070588944485 13.99978785533959 0  9 14 0  -9 16 0  -8.000898526026386 15.99982331945039 0  -7.001815084149428 15.99964005004297 0  -6.002769208184551 15.99944348494825 0  -5.003783538779361 15.99922679383494 0  -4.003819810421533 15.99974773298407 0  -3.003783087996432 16.00026560893075 0  -2.002404445113466 16.00020599535432 0  -1.001080854541559 16.00017317283534 0  0.0002161436638348923 16.00016645369402 0  1.001513409414471 16.00018550038244 0  2.002837734066101 16.00023061865751 0  3.004217539983169 16.00030262193347 0  4.004256745929146 15.99971593927867 0  5.004224025215115 15.99912856126032 0  6.003100436719758 15.99937252004373 0  7.002036210452426 15.99959385763022 0  8.001009170160255 15.99980053163627 0  9 16 0  -9 18 0  -8.001096989367145 17.9998681685775 0  -7.002222455347931 17.99973267663452 0  -6.003406332352193 17.99958992604723 0  -5.00468147709996 17.99943646521275 0  -4.004736601243675 17.99974768354086 0  -3.004681336346479 18.00005822127376 0  -2.002958063081143 18.00002340248826 0  -1.001317670395166 18.0000041197974 0  0.0002827288108669203 18.0000003168556 0  1.001883968507747 18.00001187674313 0  2.003526827602475 18.00003864361639 0  3.005254014609267 18.00008034345726 0  4.005311880971037 17.99970209942389 0  5.005257981951607 17.99932462407089 0  6.003837726599488 17.99950869046149 0  7.002509580674029 17.99967974029093 0  8.001240412092967 17.99984205828503 0  9 18 0  -9 20 0  -8.001181163497147 19.99992765358314 0  -7.002395419438869 19.99985434881059 0  -6.003677124115401 19.99977923354921 0  -5.005063167083036 19.99970166815647 0  -4.005126157794906 19.99974574697182 0  -3.005062090926371 19.99978912143544 0  -2.003181696954136 19.99977887029839 0  -1.001395227317853 19.99977336040162 0  0.0003459543268310954 19.99977294216172 0  1.002088764815437 19.99977763343642 0  2.003880131902622 19.99978713192896 0  3.005768735842536 19.99980078552137 0  4.005834633427368 19.99969463468387 0  5.005770603966033 19.99958897162552 0  6.004204993680498 19.99969696242973 0  7.002746060476337 19.99980057011813 0  8.001356106328995 19.99990108406351 0  8.999999999982439 19.99999999999949 0  -9 22 0  -8.001132610266932 21.99999096598216 0  -7.002297823503866 21.99998326381805 0  -6.003529276794241 21.99997834723949 0  -5.004862671162627 21.99997791654945 0  -4.004924207989855 21.99974134783285 0  -3.004861416046003 21.99950405382353 0  -2.003031210344512 21.99951544231106 0  -1.001292364891659 21.99952231100808 0  0.0004026856659001037 21.99952520733882 0  1.00210011086648 21.99952423503971 0  2.003846114045051 21.99951906298899 0  3.005688364226063 21.99950891723971 0  4.00575250936248 21.99969165583353 0  5.005687859135964 21.99987462323072 0  6.004144026862386 21.99990276175873 0  7.002705702122876 21.99993376596347 0  8.00133596546749 21.99996648431205 0  9 22 0  -9 24 0  -8.000953269734845 24.00004895363239 0  -7.001934474043768 24.00010104034008 0  -6.002972343223643 24.00015952085606 0  -5.004097169645915 24.00022791701521 0  -4.00414984090295 23.99973481304702 0  -3.004096274546485 23.99924106152929 0  -2.002516829804449 23.99927003067885 0  -1.001015030113108 23.99928709311756 0  0.0004499681444919401 23.99929288986621 0  1.001917958558981 23.99928757562606 0  2.00342877906431 23.99927082167369 0  3.005023408308316 23.99924181265747 0  4.005077918239284 23.99969224833274 0  5.005020548171887 24.00014276661985 0  6.003659575655571 24.00009708441674 0  7.002390123564483 24.00006009400298 0  8.001180344574399 24.00002868379226 0  9 24 0  -9 26 0  -8.00066175601429 26.00009441947535 0  -7.001343605846293 26.00019325135563 0  -6.002066198043707 26.00030103933767 0  -5.002851219797361 26.00042259612141 0  -4.002889374423416 25.99972660601178 0  -3.002851076998664 25.99903008358789 0  -2.001693371262633 25.99907210077856 0  -1.000591169314812 25.99909679560085 0  0.0004853503687001756 25.99910487375918 0  1.001565310395163 25.99909653031104 0  2.002677881438926 25.9990714512401 0  3.00385303204173 25.99902881179339 0  4.003891959119188 25.99969548819426 0  5.003847939121402 26.00036211820607 0  6.002807615910278 26.00025663274427 0  7.001834989497031 26.00016409920185 0  8.000906580798171 26.00007997882622 0  9 26 0  -9 28 0  -8.000289353392374 28.0001222472552 0  -7.000588836422624 28.00024964878347 0  -6.000908879917465 28.00038749314165 0  -5.001260419513883 28.00054133999835 0  -4.001280226354866 27.99971741160654 0  -3.001261223753345 27.9988931160692 0  -2.00064937726943 27.99894330541462 0  -1.000065250925636 27.99897281043029 0  0.0005070378099455486 27.99898238842225 0  1.00108302769783 27.99897227035774 0  2.001678306685708 27.99894216182012 0  3.002308905753059 27.99889124204742 0  4.002328319060966 27.99970063158611 0  5.002301930717758 28.0005098946039 0  6.001683420271418 28.00036437550206 0  7.001102079128895 28.00023445
[...]
<PointData  Vectors="f_42"> 
<DataArray  type="Float64"  Name="f_42"  NumberOfComponents="3" format="ascii">0.0000000000000000e+00 0.0000000000000000e+00 0.0000000000000000e+00  0.0000000000000000e+00 0.0000000000000000e+00 0.0000000000000000e+00  0.0000000000000000e+00 0.0000000000000000e+00 0.0000000000000000e+00  0.0000000000000000e+00 0.0000000000000000e+00 0.0000000000000000e+00  0.0000000000000000e+00 0.0000000000000000e+00 0.0000000000000000e+00  0.0000000000000000e+00 0.0000000000000000e+00 0.0000000000000000e+00  0.0000000000000000e+00 0.0000000000000000e+00 0.0000000000000000e+00  0.0000000000000000e+00 0.0000000000000000e+00 0.0000000000000000e+00  0.0000000000000000e+00 0.0000000000000000e+00 0.0000000000000000e+00  0.0000000000000000e+00 0.0000000000000000e+00 0.0000000000000000e+00  0.0000000000000000e+00 0.0000000000000000e+00 0.0000000000000000e+00  0.0000000000000000e+00 0.0000000000000000e+00 0.0000000000000000e+00  0.0000000000000000e+00 0.0000000000000000e+00 0.0000000000000000e+00  0.0000000000000000e+00 0.0000000000000000e+00 0.0000000000000000e+00  0.0000000000000000e+00 0.0000000000000000e+00 0.0000000000000000e+00  0.0000000000000000e+00 0.0000000000000000e+00 0.0000000000000000e+00  0.0000000000000000e+00 0.0000000000000000e+00 0.0000000000000000e+00  0.0000000000000000e+00 0.0000000000000000e+00 0.0000000000000000e+00  0.0000000000000000e+00 0.0000000000000000e+00 0.0000000000000000e+00  0.0000000000000000e+00 0.0000000000000000e+00 0.0000000000000000e+00  -4.1368181717567984e-06 -6.6875474265619138e-06 0.0000000000000000e+00  -8.7288733835131742e-06 -1.2528465842499223e-05 0.0000000000000000e+00  -1.4831191358706701e-05 -1.6832177713526543e-05 0.0000000000000000e+00  -2.4841244076708963e-05 -1.9287892216932629e-05 0.0000000000000000e+00  -1.4374146336220519e-05 -1.4530659795568087e-05 0.0000000000000000e+00  -3.5684105404654676e-06 -9.8839014857926887e-06 0.0000000000000000e+00  1.6726189572565887e-06 -5.4699932459723863e-06 0.0000000000000000e+00  2.4729322063098593e-06 -1.9956725809530161e-06 0.0000000000000000e+00  5.2463920621898909e-07 -5.3157664604074579e-07 0.0000000000000000e+00  -1.5363853431851882e-06 -1.7516250216380376e-06 0.0000000000000000e+00  -1.1183437873474579e-06 -5.4275290740700364e-06 0.0000000000000000e+00  3.5591819753329154e-06 -9.9848604569805537e-06 0.0000000000000000e+00  1.3145261685837171e-05 -1.5051410394399677e-05 0.0000000000000000e+00  2.7185248058737601e-05 -1.7734139807081507e-05 0.0000000000000000e+00  1.6714293930333384e-05 -1.6650263897123837e-05 0.0000000000000000e+00  1.0050259385856641e-05 -1.2707057138873135e-05 0.0000000000000000e+00  4.8206234356923627e-06 -6.8419002193169247e-06 0.0000000000000000e+00  0.0000000000000000e+00 0.0000000000000000e+00 0.0000000000000000e+00  -4.9820587634006413e-12 0.0000000000000000e+00 0.0000000000000000e+00  -6.4526414309310938e-06 -1.6761349552265542e-05 0.0000000000000000e+00  -1.1416722536885253e-05 -3.1205566348604621e-05 0.0000000000000000e+00  -1.4031413966466944e-05 -4.1056239796217877e-05 0.0000000000000000e+00  -1.4506302197966422e-05 -4.4130221127985313e-05 0.0000000000000000e+00  1.0131969182292087e-06 -4.2113564815878212e-05 0.0000000000000000e+00  1.1448264034856038e-05 -2.8877083286062832e-05 0.0000000000000000e+00  1.4153634734093324e-05 -1.1533499655128253e-05 0.0000000000000000e+00  1.0145727175400986e-05 2.3971975192427691e-06 0.0000000000000000e+00  2.4927575518268540e-06 7.8533919701059811e-06 0.0000000000000000e+00  -5.2633405415558769e-06 2.9867589139176499e-06 0.0000000000000000e+00  -9.5901292394569842e-06 -9.6860534272064338e-06 0.0000000000000000e+00  -6.9285421923139972e-06 -2.6886682659612680e-05 0.0000000000000000e+00  3.8261496375344838e-06 -4.4498917452344388e-05 0.0000000000000000e+00  2.0032232772349475e-05 -5.1468834732739651e-05 0.0000000000000000e+00  1.8200798955658148e-05 -4.4737618499708299e-05 0.0000000000000000e+00  1.4362805063337147e-05 -3.3101559560047108e-05 0.0000000000000000e+00  8.0050385763874513e-06 -1.7590411608236813e-05 0.0000000000000000e+00  0.0000000000000000e+00 0.0000000000000000e+00 0.0000000000000000e+00  0.0000000000000000e+00 0.0000000000000000e+00 0.0000000000000000e+00  -1.4722383908650378e-05 -3.6102359087849530e-05 0.0000000000000000e+00  -2.3502121434012747e-05 -6.8255607439458776e-05 0.0000000000000000e+00  -2.1790829775134538e-05 -9.2385864706039740e-05 0.0000000000000000e+00  -8.2536119847646551e-06 -1.0455172796740777e-04 0.0000000000000000e+00  2.2338534206917145e-05 -8.5085791439021608e-05 0.0000000000000000e+00  3.6360273576418041e-05 -4.3798966223507111e-05 0.0000000000000000e+00  3.1143657786757134e-05 -3.7017496156236231e-07 0.0000000000000000e+00  1.7634778322336757e-05 2.3906483242606847e-05 0.0000000000000000e+00  3.7748270271823998e-06 2.8646064992441167e-05 0.0000000000000000e+00  -8.8225518297682984e-06 2.0284029189977645e-05 0.0000000000000000e+00  -1.8424481726329300e-05 -2.5696863088990522e-06 0.0000000000000000e+00  -2.1821715568399785e-05 -4.1133680287194545e-05 0.0000000000000000e+00  -1.4011133564891457e-05 -8.1398381746256360e-05 0.0000000000000000e+00  1.3172367144491375e-05 -1.0211533434488768e-04 0.0000000000000000e+00  2.7713555577283842e-05 -9.2443093506741001e-05 0.0000000000000000e+00  2.8754022955204167e-05 -6.8994948951597393e-05 0.0000000000000000e+00  1.7777914842858216e-05 -3.6654565409482958e-05 0.0000000000000000e+00  0.0000000000000000e+00 0.0000000000000000e+00 0.0000000000000000e+00  0.0000000000000000e+00 0.0000000000000000e+00 0.0000000000000000e+00  -4.6759009210651519e-05 -7.1233658474649034e-05 0.0000000000000000e+00  -7.7549286465970071e-05 -1.3739093848895236e-04 0.0000000000000000e+00  -7.6852445597796646e-05 -1.9156638098836418e-04 0.0000000000000000e+00  -3.1266223249809273e-05 -2.2236372152042180e-04 0.0000000000000000e+00  2.7727598098435427e-05 -1.3140381263790718e-04 0.0000000000000000e+00  1.7955597018356390e-05 -2.4144641649026173e-05 0.0000000000000000e+00  -3.2842673919935307e-06 2.8753017113407782e-05 0.0000000000000000e+00  -4.8146725025707175e-06 3.5569418982381109e-05 0.0000000000000000e+00  8.3565674468683964e-06 3.7673180833337796e-05 0.0000000000000000e+00  1.7961300725402842e-05 4.2982304898349071e-05 0.0000000000000000e+00  1.3448167839233980e-05 1.9626394760511861e-05 0.0000000000000000e+00  -1.2990748705547485e-05 -2.0060944656921339e-05 0.0000000000000000e+00  -2.1832836841116833e-05 -1.1696431758176335e-04 0.0000000000000000e+00  3.8129421510461308e-05 -2.2610248770219679e-04 0.0000000000000000e+00  9.1224279794201337e-05 -1.9524241737357097e-04 0.0000000000000000e+00  9.1205688058633457e-05 -1.4044971296697000e-04 0.0000000000000000e+00  5.4752887435643824e-05 -7.2969642128471149e-05 0.0000000000000000e+00  0.0000000000000000e+00 0.0000000000000000e+00 0.0000000000000000e+00  0.0000000000000000e+00 0.0000000000000000e+00 0.0000000000000000e+00  -1.4263984031727907e-04 -1.2664559140499401e-04 0.0000000000000000e+00  -2.5751142523563754e-04 -2.5441504551321453e-04 0.0000000000000000e+00  -3.1143900233006984e-04 -3.8419553175272219e-04 0.0000000000000000e+00  -2.5815563316035085e-04 -5.1632145539803984e-04 0.0000000000000000e+00  -1.6511741796408028e-04 -2.2388538874424930e-04 0.0000000000000000e+00  -1.7831649152744082e-04 2.8216874712041794e-05 0.0000000000000000e+00  -1.3968081772380449e-04 -1.2651333615694491e-05 0.0000000000000000e+00  -5.7910564400332601e-05 -2.5745459461867226e-05 0.0000000000000000e+00  3.0586464557640016e-06 -2.8950394134108413e-05 0.0000000000000000e+00  6.3993215600462947e-05 -2.8962177633965498e-05 0.0000000000000000e+00  1.4566897181754446e-04 -3.1543020875697742e-05 0.0000000000000000e+00  2.1680706128292981e-04 6.1359236957658796e-05 0.0000000000000000e+00  2.0740536912144245e-04 -1.9056087788807605e-04 0.0000000000000000e+00  3.1801492428311346e-04 -5.2229960446649871e-04 0.0000000000000000e+00  3.6711772105890944e-04 -3.9371673352373303e-04 0.0000000000000000e+00  2.9934884247283206e-04 -2.6262267586767976e-04 0.0000000000000000e+00  1.6489819773706402e-04 -1.3122304623835012e-04 0.0000000000000000e+00  0.0000000000000000e+00 0.0000000000000000e+00 0.0000000000000000e+00  0.0000000000000000e+00 0.0000000000000000e+00 0.0000000000000000e+00  -3.4945222340439236e-04 -1.7750942467808438e-04 0.0000000000000000e+00  -6.8101815886034668e-04 -3.6330631624123961e-04 0.0000000000000000e+00  -9.7442258634503618e-04 -5.6728863916337771e-04 0.0000000000000000e+00  -1.2044652472234369e-03 -8.0323282606195720e-04 0.0000000000000000e+00  -1.1567571565155802e-03 -2.7228928205125138e-04 0.0000000000000000e+00  -1.1972690805406043e-03 2.5318745707183761e-04 0.0000000000000000e+00  -8.0343425476727781e-04 1.9298314617761242e-04 0.0000000000000000e+00  -3.6854238086544462e-04 1.6203571958752985e-04 0.0000000000000000e+00  8.1070669773136158e-05 1.5904206919555719e-04 0.0000000000000000e+00  5.3335577689358224e-04 1.8537719535710785e-04 0.0000000000000000e+00  9.7762981243436245e-04 2.4789156820438689e-04 0.0000000000000000e+00  1.3925073504622988e-03 3.6344922494778274e-04 0.0000000000000000e+00  1.3444205230376395e-03 -2.4200210106471089e-04 0.0000000000000000e+00  1.3783000658461793e-03 -8.5257162020836014e-04 0.0000000000000000e+00  1.1101429441828154e-03 -6.0210616098798166e-04 0.0000000000000000e+00  7.7404051078749166e-04 -3.8593821606649472e-04 0.0000000000000000e+00  3.9672384212675670e-04 -1.8872058673675111e-04 0.0000000000000000e+00  0.0000000000000000e+00 0.0000000000000000e+00 0.0000000000000000e+00  0.0000000000000000e+00 0.0000000000000000e+00 0.0000000000000000e+00  -6.2751951489803772e-04 -1.9516434129128866e-04 0.0000000000000000e+00  -1.2567057705453772e-03 -3.9935363990902857e-04 0.0000000000000000e+00  -1.8900567819724631e-03 -6.2238498344205557e-04 0.0000000000000000e+00  -2.5322662477369018e-03 -8.7562664409263449e-04 0.0000000000000000e+00  -2.5385116198283165e-03 -2.5839618456978397e-04 0.0000000000000000e+00  -2.5399234022353123e-03 3.6648786362304507e-04 0.0000000000000000e+00  -1.6319658335970035e-03 2.8169975445261968e-04 0.0000000000000000e+00  -7.3828139133879517e-04 2.3809900575456840e-04 0.0000000000000000e+00  1.4850272716349241e-04 2.2981226407063526e-04 0.0000000000000000e+00  1.0352492450813934e-03 2.5511862596153074e-04 0.0000000000000000e+00  1.9280660953099771e-03 3.1532548483604076e-04 0.0000000000000000e+00  2.8313535933329314e-03 4.1362890164950742e-04 0.0000000000000000e+00  2.8375108126787551e-03 -2.6605593148667215e-04 0.0000000000000000e+00  2.8443087383074653e-03 -9.4188076260707490e-04 0.0000000000000000e+00  2.1241659085202000e-03 -6.7304794016083630e-04 0.0000000000000000e+00  1.4131283276749191e-03 -4.3329768231991706e-04 0.0000000000000000e+00  7.0588944484423080e-04 -2.1214466040986915e-04 0.0000000000000000e+00  0.0000000000000000e+00 0.0000000000000000e+00 0.0000000000000000e+00  0.0000000000000000e+00 0.0000000000000000e+00 0.0000000000000000e+00  -8.9852602637671133e-04 -1.7668054961002594e-04 0.0000000000000000e+00  -1.8150841494295939e-03 -3.5994995703140202e-04 0.0000000000000000e+00  -2.7692081845499678e-03 -5.5651505174323886e-04 0.0000000000000000e+00  -3.7835387793616528e-03 -7.7320616506779431e-04 0.0000000000000000e+00  -3.8198104215322690e-03 -2.5226701591737861e-04 0.0000000000000000e+00  -3.7830879964326491e-03 2.6560893075991719e-04 0.0000000000000000e+00  -2.4044451134672424e-03 2.0599535431727828e-04 0.0000000000000000e+00  -1.0808545415590474e-03 1.7317283534006532e-04 0.0000000000000000e+00  2.1614366383489232e-04 1.6645369401958467e-04 0.0000000000000000e+00  1.5134094144697021e-03 1.8550038243313763e-04 0.0000000000000000e+00  2.8377340660987634e-03 2.3061865749889401e-04 0.0000000000000000e+00  4.2175399831742878e-03 3.0262193346599595e-04 0.0000000000000000e+00  4.2567459291433275e-03 -2.8406072131311469e-04 0.0000000000000000e+00  4.2240252151194884e-03 -8.7143873968813191e-04 0.0000000000000000e+00  3.1004367197620965e-03 -6.2747995626681564e-04 0.0000000000000000e+00  2.0362104524229356e-03 -4.0614236978192027e-04 0.0000000000000000e+00  1.0091701602610238e-03 -1.9946836373919066e-04 0.0000000000000000e+00  0.0000000000000000e+00 0.0000000000000000e+00 0.0000000000000000e+00  0.0000000000000000e+00 0.0000000000000000e+00 0.0000000000000000e+00  -1.0969893671280955e-03 -1.3183142249009402e-04 0.0000000000000000e+00  -2.2224553479310936e-03 -2.6732336546998661e-04 0.0000000000000000e+00  -3.4063323521927682e-03 -4.1007395276418076e-04 0.0000000000000000e+00  -4.6814770999631383e-03 -5.6353478723049789e-04 0.0000000000000000e+00  -4.7366012436730756e-03 -2.5231645915855486e-04 0.0000000000000000e+00  -4.6813363464794184e-03 5.8221273779015358e-05 0.0000000000000000e+00  -2.9580630811410070e-03 2.3402488251281992e-05 0.0000000000000000e+00  -1.3176703951684248e-03 4.1197973986833362e-06 0.0000000000000000e+00  2.8272881086692026e-04 3.1685560474119055e-07 0.0000000000000000e+00  1.8839685077471871e-03 1.1876743137093442e-05 0.0000000000000000e+00  3.5268276024716374e-03 3.8643616380487458e-05 0.0000000000000000e+00  5.2540146092680739e-03 8.0343457249465260e-05 0.0000000000000000e+00  5.3118809710367967e-03 -2.9790057611819290e-04 0.0000000000000000e+00  5.2579819516082437e-03 -6.7537592913634987e-04 0.0000000000000000e+00  3.8377265994919397e-03 -4.9130953852518787e-04 0.0000000000000000e+00  2.5095806740356090e-03 -3.2025970907083881e-04 0.0000000000000000e+00  1.2404120929641845e-03 -1.5794171496692761e-04 0.0000000000000000e+00  0.0000000000000000e+00 0.0000000000000000e+00 0.0000000000000000e+00  0.0000000000000000e+00 0.0000000000000000e+00 0.0000000000000000e+00  -1.1811634971384309e-03 -7.2346416869062559e-05 0.0000000000000000e+00  -2.3954194388678750e-03 -1.4565118940857347e-04 0.0000000000000000e+00  -3.6771241154061941e-03 -2.2076645076746524e-04 0.0000000000000000e+00  -5.0631670830367740e-03 -2.9833184352555587e-04 0.0000000000000000e+00  -5.1261577949063032e-03 -2.5425302817767208e-04 0.0000000000000000e+00  -5.0620909263750210e-03 -2.1087856455951270e-04 0.0000000000000000e+00  -3.1816969541361645e-03 -2.2112970160623020e-04 0.0000000000000000e+00  -1.3952273178534198e-03 -2.2663959838609759e-04 0.0000000000000000e+00  3.4595432683109543e-04 -2.2705783825324814e-04 0.0000000000000000e+00  2.0887648154372016e-03 -2.2236656358138224e-04 0.0000000000000000e+00  3.8801319026271798e-03 -2.1286807104352418e-04 0.0000000000000000e+00  5.7687358425383721e-03 -1.9921447865649537e-04 0.0000000000000000e+00  5.8346334273699958e-03 -3.0536531614968785e-04 0.0000000000000000e+00  5.7706039660302801e-03 -4.1102837447346376e-04 0.0000000000000000e+00  4.2049936804960455e-03 -3.0303757027900515e-04 0.0000000000000000e+00  2.7460604763366969e-03 -1.9942988187501647e-04 0.0000000000000000e+00  1.3561063289755833e-03 -9.8915936510021588e-05 0.0000000000000000e+00  -1.7564989266296203e-11 -5.0187452690605390e-13 0.0000000000000000e+00  0.0000000000000000e+00 0.0000000000000000e+00 0.0000000000000000e+00  -1.1326102669260262e-03 -9.0340178425385837e-06 0.0000000000000000e+00  -2.2978235038685515e-03 -1.6736181958663452e-05 0.0000000000000000e+00  -3.5292767942416755e-03 -2.1652760506571064e-05 0.0000000000000000e+00  -4.8626711626260626e-03 -2.2083450537492610e-05 0.0000000000000000e+00  -4.9242079898565759e-03 -2.5865216713014181e-04 0.0000000000000000e+00  -4.8614160460043136e-03 -4.9594617647504284e-04 0.0000000000000000e+00  -3.0312103445088797e-03 -4.8455768890941442e-04 0.0000000000000000e+00  -1.2923648916600087e-03 -4.7768899191225956e-04 0.0000000000000000e+00  4.0268566590010373e-04 -4.7479266120611680e-04 0.0000000000000000e+00  2.1001108664798914e-03 -4.7576496029888988e-04 0.0000000000000000e+00  3.8461140450513289e-03 -4.8093701103409710e-04 0.0000000000000000e+00  5.6883642260623446e-03 -4.9108276030086686e-04 0.0000000000000000e+00  5.7525093624827906e-03 -3.0834416645644612e-04 0.0000000000000000e+00  5.6878591359634089e-03 -1.2537676928356121e-04 0.0000000000000000e+00  4.1440268623829371e-03 -9.7238241264622694e-05 0.0000000000000000e+00  2.7057021228701524e-03 -6.6234036520166668e-05 0.0000000000000000e+00  1.3359654674864612e-03 -3.3515687932298448e-05 0.0000000000000000e+00  0.0000000000000000e+00 0.0000000000000000e+00 0.0000000000000000e+00  0.0000000000000000e+00 0.0000000000000000e+00 0.0000000000000000e+00  -9.5326973483645684e-04 4.8953632377850758e-05 0.0000000000000000e+00  -1.9344740437711974e-03 1.0104034010181618e-04 0.0000000000000000e+00  -2.9723432236475975e-03 1.5952085605953336e-04 0.0000000000000000e+00  -4.0971696459037423e-03 2.2791701519614421e-04 0.0000000000000000e+00  -4.1498409029497316e-03 -2.6518695296401021e-04 0.0000000000000000e+00  -4.0962745464850530e-03 -7.5893847072272872e-04 0.0000000000000000e+00  -2.5168298044460379e-03 -7.2996932114830740e-04 0.0000000000000000e+00  -1.0150301131079456e-03 -7.1290688243781110e-04 0.0000000000000000e+00  4.4996814449194009e-04 -7.0711013380181235e-04 0.0000000000000000e+00  1.9179585589791691e-03 -7.1242437393733218e-04 0.0000000000000000e+00  3.4287790643136762e-03 -7.2917832628588549e-04 0.0000000000000000e+00  5.0234083083138129e-03 -7.5818734252817337e-04 0.0000000000000000e+00  5.0779182392731940e-03 -3.0775166726560436e-04 0.0000000000000000e+00  5.0205481718866973e-03 1.4276661984448369e-04 0.0000000000000000e+00  3.6595756555732901e-03 9.7084416769873164e-05 0.0000000000000000e+00  2.3901235644787221e-03 6.0094002968679675e-05 0.0000000000000000e+00  1.1803445743982209e-03 2.8683792259406096e-05 0.0000000000000000e+00  0.0000000000000000e+00 0.0000000000000000e+00 0.0000000000000000e+00  0.0000000000000000e+00 0.0000000000000000e+00 0.0000000000000000e+00  -6.6175601429468273e-04 9.4419475350335908e-05 0.0000000000000000e+00  -1.3436058462953611e-03 1.9325135563172594e-04 0.0000000000000000e+00  -2.0661980437036891e-03 3.0103933766863401e-04 0.0000000000000000e+00  -2.8512197973563245e-03 4.2259612141330749e-04 0.0000000000000000e+00  -2.8893744234197564e-03 -2.7339398820787228e-04 0.0000000000000000e+00  -2.8510769986620963e-03 -9.6991641209960892e-04 0.0000000000000000e+00  -1.6933712626342721e-03 -9.2789922143959619e-04 0.0000000000000000e+00  -5.9116931481142693e-04 -9.0320439913505683e-04 0.0000000000000000e+00  4.8535036870017559e-04 -8.9512624081983152e-04 0.0000000000000000e+00  1.5653103951627177e-03 -9.0346968894331023e-04 0.0000000000000000e+00  2.6778814389263653e-03 -9.2854875992348803e-04 0.0000000000000000e+00  3.8530320417285977e-03 -9.7118820660998509e-04 0.0000000000000000e+00  3.8919591191891286e-03 -3.0451180573457415e-04 0.0000000000000000e+00  3.8479391213987438e-03 3.6211820607618376e-04 0.0000000000000000e+00  2.8076159102786414e-03 2.5663274425083882e-04 0.0000000000000000e+00  1.8349894970293582e-03 1.6409920185539217e-04 0.0000000000000000e+00  9.0658079817598791e-04 7.9978826244939789e-05 0.0000000000000000e+00  0.0000000000000000e+00 0.0000000000000000e+00 0.0000000000000000e+00  0.0000000000000000e+00 0.0000000000000000e+00 0.0000000000000000e+00  -2.8935339237267716e-04 1.2224725521020803e-04 0.0000000000000000e+00  -5.8883642262596897e-04 2.4964878347811598e-04 0.0000000000000000e+00  -9.0887991746838731e-04 3.8749314164798835e-04 0.0000000000000000e+00  -1.2604195138815337e-03 5.4133999834543600e-04 0.0000000000000000e+00  -1.2802263548696128e-03 -2.8258839347849714e-04 0.0000000000000000e+00  -1.2612237533434264e-03 -1.1068839308231268e-03 0.0000000000000000e+00  -6.4937726943064731e-04 -1.0566945854127035e-03 0.0000000000000000e+00  -6.5250925635734809e-05 -1.0271895697147228e-03 0.0000000000000000e+00  5.0703780994554857e-04 -1.0176115777820003e-03 0.0000000000000000e+00  1.0830276978299406e-03 -1.0277296422649049e-03 0.0000000000000000e+00  1.6783066857083320e-03 -1.0578381798721770e-03 0.0000000000000000e+00  2.3089057530631825e-03 -1.1087579525752200e-03 0.0000000000000000e+00  2.3283190609631847e-03 -2.9936841389534632e-04 0.0000000000000000e+00  2.301