<?xml version="1.0"?>
<VTKFile type="UnstructuredGrid"  version="0.1"  >
<UnstructuredGrid>
<Piece  NumberOfPoints="589" NumberOfCells="1080">
<Points>
<DataArray  type="Float64"  NumberOfComponents="3"  format="ascii">-9 0 0  -8 0 0  -7 0 0  -6 0 0  -5 0 0  -4 0 0  -3 0 0  -2 0 0  -1 0 0  0 0 0  1 0 0  2 0 0  3 0 0  4 0 0  5 0 0  6 0 0  7 0 0  8 0 0  9 0 0  -9 2 0  -8.000003233785312 1.99999546205958 0  -7.000006794726356 1.999991446610712 0  -6.000011407849026 1.999988373646413 0  -5.000018693990145 1.999986413627892 0  -4.000011502972995 1.999989956903703 0  -3.000004031028488 1.999993118997315 0  -2.000000255851034 1.999996001270821 0  -0.999999352638399 1.99999827534143 0  -2.441087360772805e-07 1.99999927996854 0  0.9999987205019177 1.999998622491405 0  1.999999136721939 1.99999646981893 0  3.000002080126976 1.999993817749935 0  4.000007886292759 1.999990969176472 0  5.000016197301567 1.999989801521621 0  6.000009751255109 1.999990301223523 0  7.000005771934297 1.999992549176964 0  8.000002744365922 1.999995975131688 0  9 2 0  -9 4 0  -8.000005158916528 3.999988834265954 0  -7.000009380724947 3.999979123368778 0  -6.000012123602625 3.999972295555775 0  -5.000013511117844 3.999969719916844 0  -4.000003275446613 3.999971313398819 0  -2.999996273278714 3.999979922562027 0  -1.999994139487492 3.999991108194456 0  -0.9999962315588073 4.000000087515271 0  -6.404789260704587e-07 4.000003736125584 0  0.9999948365107982 4.000001005075132 0  1.999992359266195 3.999993515068894 0  2.999994078311667 3.999983363812201 0  4.000000625877374 3.999973196947363 0  5.000010382016234 3.999969893414518 0  6.000009635568797 3.999973609509718 0  7.000007736825228 3.999980386463537 0  8.000004355874749 3.999989554728447 0  9 4 0  -9 6 0  -8.000010832344834 5.999976387651622 0  -7.000017882442181 5.999955268272195 0  -6.000018260827908 5.999939209221667 0  -5.000011134071777 5.999930679177978 0  -3.999991556935251 5.999943337948153 0  -2.999982466975906 5.999969723635849 0  -1.999985558636398 5.999997366292684 0  -0.9999938038386958 6.000012751336119 0  -2.142942541817676e-06 6.000015902468427 0  0.9999904247369311 6.000010993929465 0  1.999984876351357 5.999997383341062 0  2.999983014644341 5.999974429054787 0  3.999987845171213 5.999950679456151 0  5.000004427001045 5.999939065513523 0  6.000014129073626 5.999944674792019 0  7.000015630416065 5.999958659005224 0  8.000009866883563 5.999978026777497 0  9 6 0  -9 8 0  -8.000031632430604 7.999953971537867 0  -7.000053070137535 7.999911174403903 0  -6.000054418168438 7.999876009350388 0  -5.000027164612523 7.999855747916838 0  -3.999989720960469 7.99991388166611 0  -2.999996263018998 7.999982198461117 0  -2.000009947405946 8.00001554891306 0  -1.000010873026155 8.000019436482132 0  -2.315319825062814e-06 8.000020562150414 0  1.000004213134224 8.000023801585375 0  2.000002012708285 8.000010042301849 0  2.999986391542609 7.999986515274394 0  3.999981511688776 7.999928594100332 0  5.00001812411551 7.99986335653435 0  6.000051423756551 7.999882243754943 0  7.000052581503102 7.99991539993048 0  8.000031789568126 7.999956079016853 0  9 8 0  -9 10 0  -8.00009319961981 9.999918639649234 0  -7.000168606614899 9.99983656693666 0  -6.000204969873772 9.999753219259402 0  -5.000172674077656 9.999668379916756 0  -4.000113548826792 9.999855421972667 0  -3.000122595802194 10.00001641288012 0  -2.000098162424029 9.999989075634824 0  -1.00004604874655 9.999980309388929 0  -7.592078459387037e-06 9.999978183257713 0  1.000030497892101 9.999978322796785 0  2.00008089989542 9.999977257332901 0  3.000125731083382 10.0000339254383 0  4.000121057834597 9.999883028089169 0  5.000187393669989 9.999684315413022 0  6.000217261348965 9.999762755951847 0  7.000177315779927 9.999842059890009 0  8.000097692590133 9.999921170467161 0  9 10 0  -9 12 0  -8.000225883006907 11.9998861774092 0  -7.000440229576373 11.99976709332344 0  -6.000629985073769 11.99963645480089 0  -5.000778991793839 11.99948548147257 0  -4.000748814573835 11.99982561054169 0  -3.000775530602568 12.00016242099947 0  -2.000534390817675 12.00012144893541 0  -1.000266445986594 12.00009905890597 0  1.172516570741164e-05 12.00009427917547 0  1.000292873234715 12.0001077734334 0  2.000570977562595 12.0001435917311 0  3.000833978538138 12.0002119153162 0  4.000806314591999 11.99985183456066 0  5.000825271309957 11.99948890067896 0  6.000662231654393 11.99963985805926 0  7.000460700237866 11.9997695201043 0  8.00023583618095 11.99988740274592 0  9 12 0  -9 14 0  -8.000404600455589 13.99987478385346 0  -7.000810038361123 13.99974387669726 0  -6.001217690532877 13.99960108677477 0  -5.001630382642036 13.99943924396922 0  -4.00163444143863 13.99983588772876 0  -3.001636309492043 14.00023760561395 0  -2.001078049259749 14.00017953618939 0  -1.000527841949344 14.00014740416273 0  1.915799123007097e-05 14.00013731284008 0  1.000567582220387 14.00014796905795 0  2.00112177234747 14.00017996433904 0  3.001685244983974 14.0002350591063 0  4.001690653749971 13.99983761129473 0  5.001693023154461 13.99944270637536 0  6.001260904779258 13.99960222794014 0  7.000837260572218 13.99974414952554 0  8.000417771773272 13.99987480479532 0  9 14 0  -9 16 0  -8.000579816126805 15.99988616930031 0  -7.001170740153324 15.99976822278824 0  -6.001784834369708 15.99964197777029 0  -5.002436153467356 15.99950319336041 0  -4.002459007312066 15.99984098143967 0  -3.002436838609042 16.00017693938259 0  -2.001589886720772 16.00013399495971 0  -1.000776581176456 16.00010768390174 0  2.089731716092727e-05 16.00009744395443 0  1.000819405020797 16.00010289444559 0  2.001635814455366 16.00012402472956 0  3.002488082770662 16.00016110888362 0  4.002513169585613 15.99982714932215 0  5.002491916782388 15.99949291031182 0  6.001825237124459 15.99963505517917 0  7.00119693037511 15.99976388455526 0  8.000592678877771 15.99988406831026 0  9 16 0  -9 18 0  -8.000710439430911 17.99991402170313 0  -7.001438476002654 17.99982577821452 0  -6.00220261985287 17.99973305094054 0  -5.003023217347796 17.99963373183359 0  -4.003057763865056 17.99984189603451 0  -3.003024130024206 18.00004977428656 0  -2.001967635121436 18.00002201797336 0  -1.000962246178817 18.00000378088856 0  1.850835260928469e-05 17.99999491376481 0  1.000999828290511 17.99999519870841 0  2.002006879437245 18.00000436325693 0  3.003066014114092 18.00002203002478 0  4.00310168493152 17.99981913473083 0  5.003068183648915 17.99961683905762 0  6.002235574212972 17.99972118033126 0  7.001460063153599 17.99981822416541 0  8.00072111517499 17.99991034795082 0  9 18 0  -9 20 0  -8.000770526691186 19.99995093205252 0  -7.00156149160481 19.99990127197354 0  -6.002394112082165 19.99985049922361 0  -5.003291166795177 19.99979823817515 0  -4.003330518493364 19.99984146763826 0  -3.003291478281648 19.99988441944118 0  -2.002141516597844 19.99987203512496 0  -1.001049638869524 19.99986247154331 0  1.384493541544263e-05 19.99985584851368 0  1.001077563597205 19.99985205514904 0  2.002170128820674 19.99985075785155 0  3.00332118332483 19.99985138134594 0  4.003360917561243 19.99981483509085 0  5.003322022989501 19.99977872119691 0  6.002417003223177 19.99983650440311 0  7.001576626780452 19.99989224818829 0  8.000778055228775 19.99994651171427 0  8.999999999993783 20.00000000000394 0  -9 22 0  -8.000748725677123 21.99999020766989 0  -7.001517597176669 21.99998121505533 0  -6.002327386223929 21.99997390017396 0  -5.003200114723657 21.99996929903783 0  -4.003238520975679 21.99983945199137 0  -3.003200233990339 21.99970933678593 0  -2.0020836232166 21.99971079178905 0  -1.001023721329331 21.99970942475913 0  8.24022668713039e-06 21.99970548932888 0  1.001040173470832 21.99969894986873 0  2.002099976099517 21.9996894870786 0  3.003216374176254 21.99967649287926 0  4.003254352794036 21.99981311792202 0  5.003215812865189 21.99995003225378 0  6.002339367002339 21.999959983641 0  7.001525675144414 21.99997218985485 0  8.00075278995806 21.99998577063045 0  9 22 0  -9 24 0  -8.00064620362528 24.00002628403265 0  -7.001309740531685 24.00005444638081 0  -6.002008416894786 24.00008644408534 0  -5.002760970335885 24.00012439356654 0  -4.002793943212762 23.99983617755967 0  -3.002761168854352 23.99954775493656 0  -2.0017994363266 23.99956081357658 0  -1.000886292940851 23.99956662982424 0  2.761181796758307e-06 23.99956552422754 0  1.000891582311761 23.99955751414029 0  2.001804013384927 23.9995423146952 0  3.002764514340654 23.99951933679597 0  4.002796182570161 23.99981349443441 0  5.002762662880238 24.00010786597699 0  6.002010243728819 24.00007444004167 0  7.001311216736173 24.00004663050702 0  8.000647016923837 24.00002243223023 0  9 24 0  -9 26 0  -8.000474192679944 26.00005484952691 0  -7.000961020104608 26.00011233736136 0  -6.001473438186703 26.00017517993306 0  -5.002025021022413 26.00024625193909 0  -4.002049202163402 25.99983200011962 0  -3.00202551645115 25.99941760996022 0  -2.001321413977953 25.99943975758047 0  -1.000652743622481 25.99945147255666 0  -1.763844543279594e-06 25.99945312664084 0  1.000648833658188 25.9994447838554 0  2.001316344169295 25.99942620154707 0  3.00201846773758 25.99939682769277 0  4.002040478590557 25.99981546588001 0  5.002015455798693 26.00023424417751 0  6.001467083743069 26.00016643103639 0  7.000957166030013 26.00010662733663 0  8.00047237802379 26.0000520313062 0  9 26 0  -9 28 0  -8.000251463310233 28.00007286473249 0  -7.000509608251743 28.00014881091053 0  -6.000781286333013 28.00023099776382 0  -5.001073655586366 28.00032274092447 0  -4.001086809649463 27.99982733045253 0  -3.001074593491768 27.99933186558726 0  -2.000702172373992 27.99936038032494 0  -1.000348664332494 27.99937650634132 0  -4.737434505546506e-06 27.99938066293708 0  1.000338714693342 27.99937295908658 0  2.0006907840284 27.99935319534427 0  3.001060760577478 27.99932086355467 0  4.001070961324141 27.99981860284041 0  5.001056793706722 28.00031642702491 0  6.000769623375275 28.00022638832644 0  7.000502293232885 28.00014579800395 0  8.00024794
[...]
<PointData  Vectors="f_42"> 
<DataArray  type="Float64"  Name="f_42"  NumberOfComponents="3" format="ascii">0.0000000000000000e+00 0.0000000000000000e+00 0.0000000000000000e+00  0.0000000000000000e+00 0.0000000000000000e+00 0.0000000000000000e+00  0.0000000000000000e+00 0.0000000000000000e+00 0.0000000000000000e+00  0.0000000000000000e+00 0.0000000000000000e+00 0.0000000000000000e+00  0.0000000000000000e+00 0.0000000000000000e+00 0.0000000000000000e+00  0.0000000000000000e+00 0.0000000000000000e+00 0.0000000000000000e+00  0.0000000000000000e+00 0.0000000000000000e+00 0.0000000000000000e+00  0.0000000000000000e+00 0.0000000000000000e+00 0.0000000000000000e+00  0.0000000000000000e+00 0.0000000000000000e+00 0.0000000000000000e+00  0.0000000000000000e+00 0.0000000000000000e+00 0.0000000000000000e+00  0.0000000000000000e+00 0.0000000000000000e+00 0.0000000000000000e+00  0.0000000000000000e+00 0.0000000000000000e+00 0.0000000000000000e+00  0.0000000000000000e+00 0.0000000000000000e+00 0.0000000000000000e+00  0.0000000000000000e+00 0.0000000000000000e+00 0.0000000000000000e+00  0.0000000000000000e+00 0.0000000000000000e+00 0.0000000000000000e+00  0.0000000000000000e+00 0.0000000000000000e+00 0.0000000000000000e+00  0.0000000000000000e+00 0.0000000000000000e+00 0.0000000000000000e+00  0.0000000000000000e+00 0.0000000000000000e+00 0.0000000000000000e+00  0.0000000000000000e+00 0.0000000000000000e+00 0.0000000000000000e+00  0.0000000000000000e+00 0.0000000000000000e+00 0.0000000000000000e+00  -3.2337853145316171e-06 -4.5379404196936704e-06 0.0000000000000000e+00  -6.7947263555591819e-06 -8.5533892879458537e-06 0.0000000000000000e+00  -1.1407849025351981e-05 -1.1626353587148522e-05 0.0000000000000000e+00  -1.8693990146023751e-05 -1.3586372108414643e-05 0.0000000000000000e+00  -1.1502972994164511e-05 -1.0043096297193998e-05 0.0000000000000000e+00  -4.0310284894244401e-06 -6.8810026844388747e-06 0.0000000000000000e+00  -2.5585103270746202e-07 -3.9987291788732614e-06 0.0000000000000000e+00  6.4736160088892167e-07 -1.7246585699386334e-06 0.0000000000000000e+00  -2.4410873607728048e-07 -7.2003145976845939e-07 0.0000000000000000e+00  -1.2794980819826835e-06 -1.3775085941139579e-06 0.0000000000000000e+00  -8.6327806232938347e-07 -3.5301810687967328e-06 0.0000000000000000e+00  2.0801269771305271e-06 -6.1822500655563707e-06 0.0000000000000000e+00  7.8862927581408400e-06 -9.0308235283792707e-06 0.0000000000000000e+00  1.6197301564205178e-05 -1.0198478378745602e-05 0.0000000000000000e+00  9.7512551066917258e-06 -9.6987764768778912e-06 0.0000000000000000e+00  5.7719342976733852e-06 -7.4508230357985417e-06 0.0000000000000000e+00  2.7443659147383846e-06 -4.0248683131852393e-06 0.0000000000000000e+00  0.0000000000000000e+00 0.0000000000000000e+00 0.0000000000000000e+00  0.0000000000000000e+00 0.0000000000000000e+00 0.0000000000000000e+00  -5.1589165253809958e-06 -1.1165734046247216e-05 0.0000000000000000e+00  -9.3807249403430476e-06 -2.0876631223004341e-05 0.0000000000000000e+00  -1.2123602625949109e-05 -2.7704444225000837e-05 0.0000000000000000e+00  -1.3511117846752405e-05 -3.0280083156205400e-05 0.0000000000000000e+00  -3.2754466134704336e-06 -2.8686601180099771e-05 0.0000000000000000e+00  3.7267212860207779e-06 -2.0077437972101295e-05 0.0000000000000000e+00  5.8605125076488567e-06 -8.8918055437125618e-06 0.0000000000000000e+00  3.7684411927509063e-06 8.7515273461274301e-08 0.0000000000000000e+00  -6.4047892607045869e-07 3.7361255848202448e-06 0.0000000000000000e+00  -5.1634892022682759e-06 1.0050751338551935e-06 0.0000000000000000e+00  -7.6407338043493153e-06 -6.4849311066815688e-06 0.0000000000000000e+00  -5.9216883306199995e-06 -1.6636187800519417e-05 0.0000000000000000e+00  6.2587737217041423e-07 -2.6803052637491304e-05 0.0000000000000000e+00  1.0382016231800373e-05 -3.0106585481531633e-05 0.0000000000000000e+00  9.6355687924553946e-06 -2.6390490283394649e-05 0.0000000000000000e+00  7.7368252288234861e-06 -1.9613536461736213e-05 0.0000000000000000e+00  4.3558747568660899e-06 -1.0445271552274882e-05 0.0000000000000000e+00  0.0000000000000000e+00 0.0000000000000000e+00 0.0000000000000000e+00  0.0000000000000000e+00 0.0000000000000000e+00 0.0000000000000000e+00  -1.0832344832267481e-05 -2.3612348379780451e-05 0.0000000000000000e+00  -1.7882442181961337e-05 -4.4731727803288586e-05 0.0000000000000000e+00  -1.8260827908065398e-05 -6.0790778334944075e-05 0.0000000000000000e+00  -1.1134071773917712e-05 -6.9320822020167626e-05 0.0000000000000000e+00  8.4430647505047443e-06 -5.6662051843296265e-05 0.0000000000000000e+00  1.7533024094194894e-05 -3.0276364147463495e-05 0.0000000000000000e+00  1.4441363602422716e-05 -2.6337073180015178e-06 0.0000000000000000e+00  6.1961613042989665e-06 1.2751336118727417e-05 0.0000000000000000e+00  -2.1429425418176755e-06 1.5902468426318209e-05 0.0000000000000000e+00  -9.5752630691735844e-06 1.0993929466814234e-05 0.0000000000000000e+00  -1.5123648642716789e-05 -2.6166589390836713e-06 0.0000000000000000e+00  -1.6985355659583413e-05 -2.5570945209329989e-05 0.0000000000000000e+00  -1.2154828788335847e-05 -4.9320543848531905e-05 0.0000000000000000e+00  4.4270010450504302e-06 -6.0934486477354815e-05 0.0000000000000000e+00  1.4129073622812777e-05 -5.5325207979659864e-05 0.0000000000000000e+00  1.5630416063260367e-05 -4.1340994778062259e-05 0.0000000000000000e+00  9.8668835651026815e-06 -2.1973222502591074e-05 0.0000000000000000e+00  0.0000000000000000e+00 0.0000000000000000e+00 0.0000000000000000e+00  0.0000000000000000e+00 0.0000000000000000e+00 0.0000000000000000e+00  -3.1632430612444070e-05 -4.6028462131700942e-05 0.0000000000000000e+00  -5.3070137535590371e-05 -8.8825596099475313e-05 0.0000000000000000e+00  -5.4418168439579633e-05 -1.2399064961713099e-04 0.0000000000000000e+00  -2.7164612523949059e-05 -1.4425208316070072e-04 0.0000000000000000e+00  1.0279039530579704e-05 -8.6118333890373945e-05 0.0000000000000000e+00  3.7369810008224788e-06 -1.7801538881945385e-05 0.0000000000000000e+00  -9.9474059459133756e-06 1.5548913060908735e-05 0.0000000000000000e+00  -1.0873026154755786e-05 1.9436482130507720e-05 0.0000000000000000e+00  -2.3153198250628137e-06 2.0562150412970921e-05 0.0000000000000000e+00  4.2131342249206554e-06 2.3801585372150923e-05 0.0000000000000000e+00  2.0127082835045622e-06 1.0042301846113615e-05 0.0000000000000000e+00  -1.3608457391570475e-05 -1.3484725602750942e-05 0.0000000000000000e+00  -1.8488311222470368e-05 -7.1405899667309453e-05 0.0000000000000000e+00  1.8124115505804463e-05 -1.3664346565334204e-04 0.0000000000000000e+00  5.1423756554615463e-05 -1.1775624505559005e-04 0.0000000000000000e+00  5.2581503101804571e-05 -8.4600069523201415e-05 0.0000000000000000e+00  3.1789568125459014e-05 -4.3920983148360337e-05 0.0000000000000000e+00  0.0000000000000000e+00 0.0000000000000000e+00 0.0000000000000000e+00  0.0000000000000000e+00 0.0000000000000000e+00 0.0000000000000000e+00  -9.3199619807331964e-05 -8.1360350767406108e-05 0.0000000000000000e+00  -1.6860661489824809e-04 -1.6343306333772866e-04 0.0000000000000000e+00  -2.0496987377087260e-04 -2.4678074059770756e-04 0.0000000000000000e+00  -1.7267407765643331e-04 -3.3162008324641716e-04 0.0000000000000000e+00  -1.1354882679037660e-04 -1.4457802733453725e-04 0.0000000000000000e+00  -1.2259580219622213e-04 1.6412880115111054e-05 0.0000000000000000e+00  -9.8162424031652089e-05 -1.0924365172122383e-05 0.0000000000000000e+00  -4.6048746550348786e-05 -1.9690611068247238e-05 0.0000000000000000e+00  -7.5920784593870369e-06 -2.1816742293809989e-05 0.0000000000000000e+00  3.0497892101591014e-05 -2.1677203213371429e-05 0.0000000000000000e+00  8.0899895420409951e-05 -2.2742667100063066e-05 0.0000000000000000e+00  1.2573108338253728e-04 3.3925438302184387e-05 0.0000000000000000e+00  1.2105783459904203e-04 -1.1697191083098987e-04 0.0000000000000000e+00  1.8739366999020904e-04 -3.1568458698096004e-04 0.0000000000000000e+00  2.1726134896425336e-04 -2.3724404814788247e-04 0.0000000000000000e+00  1.7731577992520940e-04 -1.5794010999188127e-04 0.0000000000000000e+00  9.7692590129890673e-05 -7.8829532840078768e-05 0.0000000000000000e+00  0.0000000000000000e+00 0.0000000000000000e+00 0.0000000000000000e+00  0.0000000000000000e+00 0.0000000000000000e+00 0.0000000000000000e+00  -2.2588300690913585e-04 -1.1382259079445444e-04 0.0000000000000000e+00  -4.4022957637276125e-04 -2.3290667655989809e-04 0.0000000000000000e+00  -6.2998507376822656e-04 -3.6354519910838142e-04 0.0000000000000000e+00  -7.7899179384004755e-04 -5.1451852742872455e-04 0.0000000000000000e+00  -7.4881457383679155e-04 -1.7438945831442314e-04 0.0000000000000000e+00  -7.7553060256776161e-04 1.6242099947839835e-04 0.0000000000000000e+00  -5.3439081767431556e-04 1.2144893540840483e-04 0.0000000000000000e+00  -2.6644598659307370e-04 9.9058905976688174e-05 0.0000000000000000e+00  1.1725165707411645e-05 9.4279175475284961e-05 0.0000000000000000e+00  2.9287323471522146e-04 1.0777343339557492e-04 0.0000000000000000e+00  5.7097756259528326e-04 1.4359173109624871e-04 0.0000000000000000e+00  8.3397853813808940e-04 2.1191531619878983e-04 0.0000000000000000e+00  8.0631459200247713e-04 -1.4816543933224101e-04 0.0000000000000000e+00  8.2527130995274948e-04 -5.1109932103786566e-04 0.0000000000000000e+00  6.6223165439212132e-04 -3.6014194073691997e-04 0.0000000000000000e+00  4.6070023786896295e-04 -2.3047989569251149e-04 0.0000000000000000e+00  2.3583618094767314e-04 -1.1259725407855508e-04 0.0000000000000000e+00  0.0000000000000000e+00 0.0000000000000000e+00 0.0000000000000000e+00  0.0000000000000000e+00 0.0000000000000000e+00 0.0000000000000000e+00  -4.0460045559028297e-04 -1.2521614653649029e-04 0.0000000000000000e+00  -8.1003836112231490e-04 -2.5612330274654591e-04 0.0000000000000000e+00  -1.2176905328766773e-03 -3.9891322523555913e-04 0.0000000000000000e+00  -1.6303826420367867e-03 -5.6075603078161221e-04 0.0000000000000000e+00  -1.6344414386313118e-03 -1.6411227123185496e-04 0.0000000000000000e+00  -1.6363094920413270e-03 2.3760561395255760e-04 0.0000000000000000e+00  -1.0780492597510208e-03 1.7953618938523346e-04 0.0000000000000000e+00  -5.2784194934261258e-04 1.4740416272951442e-04 0.0000000000000000e+00  1.9157991230070971e-05 1.3731284007358904e-04 0.0000000000000000e+00  5.6758222038732207e-04 1.4796905796264772e-04 0.0000000000000000e+00  1.1217723474698312e-03 1.7996433903476653e-04 0.0000000000000000e+00  1.6852449839741593e-03 2.3505910629821150e-04 0.0000000000000000e+00  1.6906537499683646e-03 -1.6238870527669197e-04 0.0000000000000000e+00  1.6930231544608624e-03 -5.5729362463282587e-04 0.0000000000000000e+00  1.2609047792579960e-03 -3.9777205986142719e-04 0.0000000000000000e+00  8.3726057221853703e-04 -2.5585047446256078e-04 0.0000000000000000e+00  4.1777177326874515e-04 -1.2519520467937106e-04 0.0000000000000000e+00  0.0000000000000000e+00 0.0000000000000000e+00 0.0000000000000000e+00  0.0000000000000000e+00 0.0000000000000000e+00 0.0000000000000000e+00  -5.7981612680805433e-04 -1.1383069970188474e-04 0.0000000000000000e+00  -1.1707401533231172e-03 -2.3177721175325264e-04 0.0000000000000000e+00  -1.7848343697076182e-03 -3.5802222970591043e-04 0.0000000000000000e+00  -2.4361534673578078e-03 -4.9680663960452204e-04 0.0000000000000000e+00  -2.4590073120645752e-03 -1.5901856032630643e-04 0.0000000000000000e+00  -2.4368386090432865e-03 1.7693938258131527e-04 0.0000000000000000e+00  -1.5898867207703926e-03 1.3399495971813408e-04 0.0000000000000000e+00  -7.7658117645553132e-04 1.0768390172907103e-04 0.0000000000000000e+00  2.0897317160927268e-05 9.7443954441054533e-05 0.0000000000000000e+00  8.1940502079788484e-04 1.0289444558847192e-04 0.0000000000000000e+00  1.6358144553648658e-03 1.2402472955943658e-04 0.0000000000000000e+00  2.4880827706645196e-03 1.6110888361485550e-04 0.0000000000000000e+00  2.5131695856118342e-03 -1.7285067784833627e-04 0.0000000000000000e+00  2.4919167823883931e-03 -5.0708968817960928e-04 0.0000000000000000e+00  1.8252371244620463e-03 -3.6494482083712914e-04 0.0000000000000000e+00  1.1969303751098498e-03 -2.3611544474194933e-04 0.0000000000000000e+00  5.9267887776959737e-04 -1.1593168973127726e-04 0.0000000000000000e+00  0.0000000000000000e+00 0.0000000000000000e+00 0.0000000000000000e+00  0.0000000000000000e+00 0.0000000000000000e+00 0.0000000000000000e+00  -7.1043943090282253e-04 -8.5978296868048748e-05 0.0000000000000000e+00  -1.4384760026543556e-03 -1.7422178546616353e-04 0.0000000000000000e+00  -2.2026198528685985e-03 -2.6694905946350361e-04 0.0000000000000000e+00  -3.0232173477998578e-03 -3.6626816640627932e-04 0.0000000000000000e+00  -3.0577638650568779e-03 -1.5810396550208669e-04 0.0000000000000000e+00  -3.0241300242062892e-03 4.9774286550142760e-05 0.0000000000000000e+00  -1.9676351214367106e-03 2.2017973363583507e-05 0.0000000000000000e+00  -9.6224617881865459e-04 3.7808885552216319e-06 0.0000000000000000e+00  1.8508352609284686e-05 -5.0862351962308875e-06 0.0000000000000000e+00  9.9982829051173784e-04 -4.8012915844280185e-06 0.0000000000000000e+00  2.0068794372445692e-03 4.3632569276473300e-06 0.0000000000000000e+00  3.0660141140905007e-03 2.2030024774550454e-05 0.0000000000000000e+00  3.1016849315194245e-03 -1.8086526916531986e-04 0.0000000000000000e+00  3.0681836489135058e-03 -3.8316094239435804e-04 0.0000000000000000e+00  2.2355742129711760e-03 -2.7881966874478749e-04 0.0000000000000000e+00  1.4600631536014943e-03 -1.8177583459176542e-04 0.0000000000000000e+00  7.2111517498799787e-04 -8.9652049183328635e-05 0.0000000000000000e+00  0.0000000000000000e+00 0.0000000000000000e+00 0.0000000000000000e+00  0.0000000000000000e+00 0.0000000000000000e+00 0.0000000000000000e+00  -7.7052669118118878e-04 -4.9067947478713599e-05 0.0000000000000000e+00  -1.5614916048080840e-03 -9.8728026454109459e-05 0.0000000000000000e+00  -2.3941120821654015e-03 -1.4950077637218399e-04 0.0000000000000000e+00  -3.2911667951759133e-03 -2.0176182484339162e-04 0.0000000000000000e+00  -3.3305184933617549e-03 -1.5853236173267910e-04 0.0000000000000000e+00  -3.2914782816483926e-03 -1.1558055881414649e-04 0.0000000000000000e+00  -2.1415165978439176e-03 -1.2796487503002367e-04 0.0000000000000000e+00  -1.0496388695246264e-03 -1.3752845667191105e-04 0.0000000000000000e+00  1.3844935415442629e-05 -1.4415148631982309e-04 0.0000000000000000e+00  1.0775635972054124e-03 -1.4794485095894543e-04 0.0000000000000000e+00  2.1701288206755873e-03 -1.4924214846527271e-04 0.0000000000000000e+00  3.3211833248306989e-03 -1.4861865406387239e-04 0.0000000000000000e+00  3.3609175612464223e-03 -1.8516490916364449e-04 0.0000000000000000e+00  3.3220229895016312e-03 -2.2127880308377070e-04 0.0000000000000000e+00  2.4170032231746567e-03 -1.6349559688289412e-04 0.0000000000000000e+00  1.5766267804521892e-03 -1.0775181171277926e-04 0.0000000000000000e+00  7.7805522876999648e-04 -5.3488285728750712e-05 0.0000000000000000e+00  -6.2216962209039259e-12 3.9456811704851195e-12 0.0000000000000000e+00  0.0000000000000000e+00 0.0000000000000000e+00 0.0000000000000000e+00  -7.4872567712263303e-04 -9.7923301106039137e-06 0.0000000000000000e+00  -1.5175971766709345e-03 -1.8784944671343095e-05 0.0000000000000000e+00  -2.3273862239283453e-03 -2.6099826024636609e-05 0.0000000000000000e+00  -3.2001147236563202e-03 -3.0700962175459960e-05 0.0000000000000000e+00  -3.2385209756778713e-03 -1.6054800862277748e-04 0.0000000000000000e+00  -3.2002339903402653e-03 -2.9066321406763464e-04 0.0000000000000000e+00  -2.0836232165993606e-03 -2.8920821094195553e-04 0.0000000000000000e+00  -1.0237213293307335e-03 -2.9057524085643414e-04 0.0000000000000000e+00  8.2402266871303900e-06 -2.9451067113119949e-04 0.0000000000000000e+00  1.0401734708317286e-03 -3.0105013128111036e-04 0.0000000000000000e+00  2.0999760995169614e-03 -3.1051292140075413e-04 0.0000000000000000e+00  3.2163741762531979e-03 -3.2350712074068747e-04 0.0000000000000000e+00  3.2543527940376098e-03 -1.8688207796975772e-04 0.0000000000000000e+00  3.2158128651903761e-03 -4.9967746231041557e-05 0.0000000000000000e+00  2.3393670023391724e-03 -4.0016358994740237e-05 0.0000000000000000e+00  1.5256751444126155e-03 -2.7810145132893736e-05 0.0000000000000000e+00  7.5278995805963815e-04 -1.4229369545052533e-05 0.0000000000000000e+00  0.0000000000000000e+00 0.0000000000000000e+00 0.0000000000000000e+00  0.0000000000000000e+00 0.0000000000000000e+00 0.0000000000000000e+00  -6.4620362527464882e-04 2.6284032655643829e-05 0.0000000000000000e+00  -1.3097405316836496e-03 5.4446380810384806e-05 0.0000000000000000e+00  -2.0084168947892447e-03 8.6444085349691738e-05 0.0000000000000000e+00  -2.7609703358823720e-03 1.2439356653619403e-04 0.0000000000000000e+00  -2.7939432127619315e-03 -1.6382244031853220e-04 0.0000000000000000e+00  -2.7611688543516689e-03 -4.5224506344249832e-04 0.0000000000000000e+00  -1.7994363265992758e-03 -4.3918642341166905e-04 0.0000000000000000e+00  -8.8629294085055708e-04 -4.3337017575838119e-04 0.0000000000000000e+00  2.7611817967583066e-06 -4.3447577246730153e-04 0.0000000000000000e+00  8.9158231176116607e-04 -4.4248585971220052e-04 0.0000000000000000e+00  1.8040133849292178e-03 -4.5768530479892681e-04 0.0000000000000000e+00  2.7645143406530943e-03 -4.8066320402225372e-04 0.0000000000000000e+00  2.7961825701586411e-03 -1.8650556559412969e-04 0.0000000000000000e+00  2.7626628802388149e-03 1.0786597697295277e-04 0.0000000000000000e+00  2.0102437288232293e-03 7.4440041671305687e-05 0.0000000000000000e+00  1.3112167361720723e-03 4.6630507018939399e-05 0.0000000000000000e+00  6.4701692383557763e-04 2.2432230244090430e-05 0.0000000000000000e+00  0.0000000000000000e+00 0.0000000000000000e+00 0.0000000000000000e+00  0.0000000000000000e+00 0.0000000000000000e+00 0.0000000000000000e+00  -4.7419267994981332e-04 5.4849526911767313e-05 0.0000000000000000e+00  -9.6102010461067834e-04 1.1233736137142059e-04 0.0000000000000000e+00  -1.4734381867030262e-03 1.7517993304885961e-04 0.0000000000000000e+00  -2.0250210224096693e-03 2.4625193910090577e-04 0.0000000000000000e+00  -2.0492021634028251e-03 -1.6799988037801672e-04 0.0000000000000000e+00  -2.0255164511477227e-03 -5.8239003977655056e-04 0.0000000000000000e+00  -1.3214139779532043e-03 -5.6024241952098703e-04 0.0000000000000000e+00  -6.5274362248096251e-04 -5.4852744333882175e-04 0.0000000000000000e+00  -1.7638445432795938e-06 -5.4687335915448948e-04 0.0000000000000000e+00  6.4883365818795577e-04 -5.5521614458968981e-04 0.0000000000000000e+00  1.3163441692939754e-03 -5.7379845293827503e-04 0.0000000000000000e+00  2.0184677375797390e-03 -6.0317230724093551e-04 0.0000000000000000e+00  2.0404785905580145e-03 -1.8453411999650474e-04 0.0000000000000000e+00  2.0154557986898315e-03 2.3424417751330835e-04 0.0000000000000000e+00  1.4670837430680466e-03 1.6643103637731984e-04 0.0000000000000000e+00  9.5716603001173828e-04 1.0662733663122217e-04 0.0000000000000000e+00  4.7237802379650656e-04 5.2031306208406128e-05 0.0000000000000000e+00  0.0000000000000000e+00 0.0000000000000000e+00 0.0000000000000000e+00  0.0000000000000000e+00 0.0000000000000000e+00 0.0000000000000000e+00  -2.5146331022657403e-04 7.2864732484393844e-05 0.0000000000000000e+00  -5.0960825174546957e-04 1.4881091051463906e-04 0.0000000000000000e+00  -7.8128633301196779e-04 2.3099776383046392e-04 0.0000000000000000e+00  -1.0736555863697943e-03 3.2274092447049757e-04 0.0000000000000000e+00  -1.0868096494653103e-03 -1.7266954746573244e-04 0.0000000000000000e+00  -1.0745934917658158e-03 -6.6813441275424747e-04 0.0000000000000000e+00  -7.0217237399171687e-04 -6.3961967508346484e-04 0.0000000000000000e+00  -3.4866433249390301e-04 -6.2349365868622278e-04 0.0000000000000000e+00  -4.7374345055465064e-06 -6.1933706291863674e-04 0.0000000000000000e+00  3.3871469334209174e-04 -6.2704091341696754e-04 0.0000000000000000e+00  6.9078402840018157e-04 -6.4680465572245329e-04 0.0000000000000000e+00  1.0607605774807592e-03 -6.7913644535384126e-04 0.0000000000000000e+00  1.0709613241380949e-03 -1.8139715959021330e-04 0.0000000000000000e+