<?xml version="1.0"?>
<VTKFile type="UnstructuredGrid"  version="0.1"  >
<UnstructuredGrid>
<Piece  NumberOfPoints="589" NumberOfCells="1080">
<Points>
<DataArray  type="Float64"  NumberOfComponents="3"  format="ascii">-9 0 0  -8 0 0  -7 0 0  -6 0 0  -5 0 0  -4 0 0  -3 0 0  -2 0 0  -1 0 0  0 0 0  1 0 0  2 0 0  3 0 0  4 0 0  5 0 0  6 0 0  7 0 0  8 0 0  9 0 0  -9 2 0  -8.000006628514413 1.999990096363567 0  -7.000013890676287 1.999981413487279 0  -6.000023291406795 1.99997494277492 0  -5.000038283692141 1.99997111997278 0  -4.000022702493192 1.999978436779131 0  -3.000006696104137 1.999985369893286 0  -1.99999888906176 1.999991875804201 0  -0.999997581172303 1.999997021717093 0  -3.378455513976231e-07 1.999999293595773 0  0.9999965958440414 1.9999977711362 0  1.999996860051829 1.999992838020956 0  3.000002891355483 1.999986803970725 0  4.000015422442602 1.999980404399288 0  5.000033546238487 1.999977971118747 0  6.000020176348792 1.999978786669072 0  7.000011982294905 1.999983596281552 0  8.000005720548941 1.999991109323029 0  9 2 0  -9 4 0  -8.00001072230569 3.999975310243923 0  -7.000019227101813 3.99995397873503 0  -6.000024216533043 3.999939294135477 0  -5.0000259545047 3.999934390065387 0  -4.000003290299028 3.999937868281658 0  -2.999988087687736 3.999957405685667 0  -1.999984109314424 3.999982812480392 0  -0.9999898708434468 4.000003259761118 0  -9.353723741300923e-07 4.000011541900665 0  0.9999877533785905 4.000005217232678 0  1.999981151944603 3.999988023110863 0  2.999984214305537 3.999964761987039 0  3.999998446330578 3.999941452174264 0  5.000020247003313 3.999933924527276 0  6.000019649247004 3.999941597444662 0  7.000016235223425 3.999956379428221 0  8.000009276088123 3.999976708708199 0  9 4 0  -9 6 0  -8.000023685426816 5.999947093866935 0  -7.000038624926146 5.999899958871396 0  -6.000038147503398 5.999864525809089 0  -5.000020345676778 5.999846473662691 0  -3.999976140880574 5.999875488667971 0  -2.999956052168498 5.999935946798829 0  -1.999964037034465 5.999999288849856 0  -0.9999838677102588 6.000034485611536 0  -3.902770560678303e-06 6.000041590986966 0  0.9999781158924969 6.000030297864026 0  1.999964425255475 5.999998990452925 0  2.999959277619024 5.999946089776264 0  3.999969639334167 5.999891303459603 0  5.000007137068764 5.999864345605866 0  6.000030387164175 5.999875974271711 0  7.000034667865826 5.999906976037837 0  8.000022098372582 5.999950462557185 0  9 6 0  -9 8 0  -8.000071624272653 7.999895805539984 0  -7.000119685629159 7.999799144822688 0  -6.000121373297203 7.999720247178671 0  -5.000057201968849 7.999675964868562 0  -3.999971592505959 7.999809627308995 0  -2.999987553082508 7.9999666275872 0  -2.000019850912056 8.000043036509082 0  -1.000022696833164 8.000051612062816 0  -3.628042234631903e-06 8.000054087989907 0  1.000010675600283 8.000061762940389 0  2.000004865520281 8.000030104697389 0  2.999967839347753 7.999976210108589 0  3.999955321946776 7.999842419377871 0  5.00003902504094 7.999691419447745 0  6.000116993011137 7.999732877223381 0  7.000120490271064 7.999807647768552 0  8.00007302676358 7.99990002336774 0  9 8 0  -9 10 0  -8.00021375100293 9.999814433591848 0  -7.000386172906747 9.999627358062451 0  -6.000467970209389 9.999437638332628 0  -5.000390507790744 9.99924502554625 0  -4.000254631839051 9.99967693118305 0  -3.000277224808316 10.00004821264626 0  -2.000222380797155 9.999983842189225 0  -1.000103115813575 9.999963188410241 0  -1.540107370976951e-05 9.999958152526206 0  1.000071524253525 9.999958582309574 0  2.00018715101975 9.999956421272595 0  3.000289008374695 10.00008945531564 0  4.00027631057934 9.999739661176751 0  5.000429830291066 9.999277997085976 0  6.000501346144121 9.999456633477735 0  7.000410070371796 9.999637957528959 0  8.000226152448397 9.999819216902184 0  9 10 0  -9 12 0  -8.00052089812195 11.99973920800912 0  -7.00101467532622 11.99946633356727 0  -6.001450671617826 11.99916692506818 0  -5.001790860060278 11.99882082504233 0  -4.001721233382027 11.99960907873834 0  -3.001784409633208 12.00038951300064 0  -2.001227943019696 12.00029467306332 0  -1.000608320636255 12.00024305116174 0  3.533076116149803e-05 12.00023247229699 0  1.000685595470255 12.00026452218812 0  2.001327842640674 12.00034862446254 0  3.001933150368921 12.00050840869745 0  4.001866635766326 11.99966874370299 0  5.001910786485372 11.99882216360804 0  6.001536199571179 11.99916987902674 0  7.001069885997095 11.9994686733009 0  8.00054801270784 11.99974040675109 0  9 12 0  -9 14 0  -8.000935917075056 13.99971243670656 0  -7.001873321826744 13.99941166075827 0  -6.002814928610684 13.99908329261473 0  -5.00376662985911 13.99871066416581 0  -4.003776297670235 13.99963308485224 0  -3.003782351991221 14.00056717537658 0  -2.002487281918509 14.00043286066569 0  -1.00121015021124 14.000358944117 0  5.974709732985251e-05 14.00033646258184 0  1.001332624435445 14.00036247963533 0  2.002617983145464 14.00043842643319 0  3.003923316118119 14.00056844382573 0  4.003933634575342 13.99963613596388 0  5.003939241979059 13.99870963870491 0  6.002936497610023 13.99907928720624 0  7.001951084897277 13.99940791808263 0  8.000973897587688 13.99971031374754 0  9 14 0  -9 16 0  -8.001344149546918 15.99973859909714 0  -7.002713783746043 15.9994675324094 0  -6.004136592391331 15.99917696547746 0  -5.00564478479693 15.9988568847361 0  -4.005698280267813 15.99964538299228 0  -3.005648033522972 16.00042972143613 0  -2.003677026792638 16.00033012507744 0  -1.001783991592346 16.00026963606184 0  7.227367846774573e-05 16.00024694488496 0  1.001930724350401 16.00026119624656 0  2.003830336572519 16.00031242301529 0  3.005812582905421 16.00040134921597 0  4.005869343966053 15.99961217945187 0  5.005819745765696 15.99882240608185 0  6.004264996902434 15.99915309123958 0  7.002797884942941 15.99945233134639 0  8.001385730873261 15.99973117812445 0  9 16 0  -9 18 0  -8.001649562259869 17.99980344656735 0  -7.003339967370478 17.99960149253924 0  -6.0051141817744 17.999388834478 0  -5.007019404091149 17.9991603875493 0  -4.007100342956234 17.99964850464638 0  -3.007022622526897 18.00013599609901 0  -2.00455764991053 18.00007151090607 0  -1.002212050392646 18.00002970721215 0  7.60032927663198e-05 18.00001022072712 0  1.002365344639776 18.00001256208513 0  2.004714724103256 18.00003614908882 0  3.007185681146394 18.00008019041991 0  4.007268103501551 17.99959424655897 0  5.007189611583891 17.99910973776586 0  6.005240124825887 17.99935288406506 0  7.00342308110085 17.99957844613492 0  8.001690859794149 17.99979218872823 0  9 18 0  -9 20 0  -8.001790785678077 19.9998898828791 0  -7.00362929619066 19.99977829025705 0  -6.005565079864956 19.99966390622961 0  -5.007651332917401 19.99954572963135 0  -4.007743778412779 19.99964884934635 0  -3.00765274796919 19.99975128467662 0  -2.004963898337493 19.99972257682205 0  -1.002411409333411 19.99970092942564 0  7.451613835358509e-05 19.99968660247204 0  1.002561147202579 19.99967934860567 0  2.005115717451283 19.99967843083777 0  3.007807926659058 19.99968257849027 0  4.007900717267988 19.99958531494301 0  5.007809156615293 19.99948904219692 0  6.005682575627265 19.99962307268883 0  7.003707200460103 19.99975186787756 0  8.001829607868311 19.99987691127112 0  8.999999999992893 19.99999999999313 0  -9 22 0  -8.00174035362501 21.99998220564315 0  -7.003527923669895 21.99996625005342 0  -6.005411408585535 21.99995415137401 0  -5.007442460043592 21.99994829019585 0  -4.007533021874908 21.99964543091281 0  -3.007443354482382 21.99934181585921 0  -2.004827863081616 21.99934553697653 0  -1.002346004899123 21.99934301821994 0  7.019929941397213e-05 21.9993348399515 0  1.002486665962072 21.99932092722224 0  2.004969287505119 21.99930056211783 0  3.007585972877046 21.99927237159115 0  4.007675194260291 21.99958246048667 0  5.007583960562004 21.9998931254865 0  6.005517406585573 21.99991419318611 0  7.003598512895269 21.99994028096254 0  8.001775620290237 21.99996942185659 0  9 22 0  -9 24 0  -8.001500279339737 24.00006717389436 0  -7.003041248159538 24.00013878130652 0  -6.004664737661148 24.00021944001979 0  -5.006414797066294 24.00031414794375 0  -4.006492911534207 23.99963854170343 0  -3.006416122790908 23.99896226145275 0  -2.004160360000858 23.99899333517671 0  -1.002019399500506 23.99900763019809 0  6.490422626669176e-05 23.99900589888766 0  1.002149130523128 23.99898818983825 0  2.004289839792585 23.99895385126197 0  3.006545122268757 23.99890152602268 0  4.00661969299316 23.99958414660788 0  5.00653978286061 24.00026710872664 0  6.004758913311564 24.00018521576027 0  7.003104224659739 24.00011646769216 0  8.00153181859524 24.00005616816386 0  9 24 0  -9 26 0  -8.001096564222818 26.00013442392481 0  -7.002222745363914 26.00027511566669 0  -6.00340896400802 26.0004285299454 0  -5.004687108850582 26.0006015074955 0  -4.004744738372762 25.99962871249579 0  -3.004689518931013 25.9986553995666 0  -2.003036598528729 25.99870797033496 0  -1.001467504640107 25.99873607078904 0  6.004452988044296e-05 25.99874058808382 0  1.001587264335432 25.99872168176979 0  2.003155351262037 25.99867878470695 0  3.004806531712794 25.99861060061907 0  4.00485826108834 25.9995889289936 0  5.004798024444845 26.00056741789832 0  6.003493026028603 26.00040365998247 0  7.002279187162337 26.00025886759337 0  8.001124897988177 26.00012639928524 0  9 26 0  -9 28 0  -8.000573355995053 28.00017662085422 0  -7.00116222261182 28.00036057020393 0  -6.001782562804549 28.00055936596105 0  -5.002451050811182 28.00078091050651 0  -4.002482713737678 27.9996168902199 0  -3.002454796419925 27.99845260279102 0  -2.00158042126055 27.99852019585959 0  -1.000750739330679 27.99855854831027 0  5.663141522801219e-05 27.99856866967344 0  1.000863508012043 27.9985508269599 0  2.001691686054284 27.9985045448234 0  3.002563483718406 27.99842860429705 0  4.002587144953933 27.9995957595305 0  5.002552398086279 28.00076298905787 0  6.001859743758001 28.00054626389101 0  7.001214218628571 28.00035199641554 0  8.000599511045319 28.000
[...]
<PointData  Vectors="f_42"> 
<DataArray  type="Float64"  Name="f_42"  NumberOfComponents="3" format="ascii">0.0000000000000000e+00 0.0000000000000000e+00 0.0000000000000000e+00  0.0000000000000000e+00 0.0000000000000000e+00 0.0000000000000000e+00  0.0000000000000000e+00 0.0000000000000000e+00 0.0000000000000000e+00  0.0000000000000000e+00 0.0000000000000000e+00 0.0000000000000000e+00  0.0000000000000000e+00 0.0000000000000000e+00 0.0000000000000000e+00  0.0000000000000000e+00 0.0000000000000000e+00 0.0000000000000000e+00  0.0000000000000000e+00 0.0000000000000000e+00 0.0000000000000000e+00  0.0000000000000000e+00 0.0000000000000000e+00 0.0000000000000000e+00  0.0000000000000000e+00 0.0000000000000000e+00 0.0000000000000000e+00  0.0000000000000000e+00 0.0000000000000000e+00 0.0000000000000000e+00  0.0000000000000000e+00 0.0000000000000000e+00 0.0000000000000000e+00  0.0000000000000000e+00 0.0000000000000000e+00 0.0000000000000000e+00  0.0000000000000000e+00 0.0000000000000000e+00 0.0000000000000000e+00  0.0000000000000000e+00 0.0000000000000000e+00 0.0000000000000000e+00  0.0000000000000000e+00 0.0000000000000000e+00 0.0000000000000000e+00  0.0000000000000000e+00 0.0000000000000000e+00 0.0000000000000000e+00  0.0000000000000000e+00 0.0000000000000000e+00 0.0000000000000000e+00  0.0000000000000000e+00 0.0000000000000000e+00 0.0000000000000000e+00  0.0000000000000000e+00 0.0000000000000000e+00 0.0000000000000000e+00  0.0000000000000000e+00 0.0000000000000000e+00 0.0000000000000000e+00  -6.6285144206535422e-06 -9.9036364329460015e-06 0.0000000000000000e+00  -1.3890676285778444e-05 -1.8586512720512929e-05 0.0000000000000000e+00  -2.3291406794406280e-05 -2.5057225079411534e-05 0.0000000000000000e+00  -3.8283692142978334e-05 -2.8880027220872283e-05 0.0000000000000000e+00  -2.2702493193229173e-05 -2.1563220868712442e-05 0.0000000000000000e+00  -6.6961041394789480e-06 -1.4630106713955759e-05 0.0000000000000000e+00  1.1109382414242239e-06 -8.1241957993667413e-06 0.0000000000000000e+00  2.4188276967288644e-06 -2.9782829079004848e-06 0.0000000000000000e+00  -3.3784555139762313e-07 -7.0640422676926813e-07 0.0000000000000000e+00  -3.4041559579850245e-06 -2.2288638000305257e-06 0.0000000000000000e+00  -3.1399481729939500e-06 -7.1619790426763577e-06 0.0000000000000000e+00  2.8913554841674799e-06 -1.3196029276500195e-05 0.0000000000000000e+00  1.5422442602895973e-05 -1.9595600712617095e-05 0.0000000000000000e+00  3.3546238483739322e-05 -2.2028881252549883e-05 0.0000000000000000e+00  2.0176348788880581e-05 -2.1213330928264743e-05 0.0000000000000000e+00  1.1982294905401473e-05 -1.6403718447935528e-05 0.0000000000000000e+00  5.7205489369475810e-06 -8.8906769722868047e-06 0.0000000000000000e+00  0.0000000000000000e+00 0.0000000000000000e+00 0.0000000000000000e+00  0.0000000000000000e+00 0.0000000000000000e+00 0.0000000000000000e+00  -1.0722305687905275e-05 -2.4689756078481545e-05 0.0000000000000000e+00  -1.9227101805856857e-05 -4.6021264970910317e-05 0.0000000000000000e+00  -2.4216533041037941e-05 -6.0705864524538887e-05 0.0000000000000000e+00  -2.5954504704240805e-05 -6.5609934612239165e-05 0.0000000000000000e+00  -3.2902990280634893e-06 -6.2131718341432418e-05 0.0000000000000000e+00  1.1912312263785352e-05 -4.2594314331409824e-05 0.0000000000000000e+00  1.5890685575235686e-05 -1.7187519609001591e-05 0.0000000000000000e+00  1.0129156553038556e-05 3.2597611182441902e-06 0.0000000000000000e+00  -9.3537237413009232e-07 1.1541900664545500e-05 0.0000000000000000e+00  -1.2246621409800606e-05 5.2172326823011697e-06 0.0000000000000000e+00  -1.8848055396159756e-05 -1.1976889137639874e-05 0.0000000000000000e+00  -1.5785694458947405e-05 -3.5238012961745640e-05 0.0000000000000000e+00  -1.5536694241053397e-06 -5.8547825737059784e-05 0.0000000000000000e+00  2.0247003306366971e-05 -6.6075472722978512e-05 0.0000000000000000e+00  1.9649246999726449e-05 -5.8402555336979189e-05 0.0000000000000000e+00  1.6235223424258569e-05 -4.3620571777753480e-05 0.0000000000000000e+00  9.2760881354581642e-06 -2.3291291800933684e-05 0.0000000000000000e+00  0.0000000000000000e+00 0.0000000000000000e+00 0.0000000000000000e+00  0.0000000000000000e+00 0.0000000000000000e+00 0.0000000000000000e+00  -2.3685426818713766e-05 -5.2906133067506990e-05 0.0000000000000000e+00  -3.8624926146440370e-05 -1.0004112860197405e-04 0.0000000000000000e+00  -3.8147503401201840e-05 -1.3547419091200803e-04 0.0000000000000000e+00  -2.0345676776908650e-05 -1.5352633730585625e-04 0.0000000000000000e+00  2.3859119427271227e-05 -1.2451133202387817e-04 0.0000000000000000e+00  4.3947831501628440e-05 -6.4053201166009176e-05 0.0000000000000000e+00  3.5962965535671129e-05 -7.1115014606120878e-07 0.0000000000000000e+00  1.6132289741453856e-05 3.4485611536712904e-05 0.0000000000000000e+00  -3.9027705606783032e-06 4.1590986965431183e-05 0.0000000000000000e+00  -2.1884107503315063e-05 3.0297864027494708e-05 0.0000000000000000e+00  -3.5574744524828049e-05 -1.0095470784029617e-06 0.0000000000000000e+00  -4.0722380976708704e-05 -5.3910223730762551e-05 0.0000000000000000e+00  -3.0360665834415022e-05 -1.0869654039573573e-04 0.0000000000000000e+00  7.1370687630644805e-06 -1.3565439413554365e-04 0.0000000000000000e+00  3.0387164170582214e-05 -1.2402572828669372e-04 0.0000000000000000e+00  3.4667865825797660e-05 -9.3023962163332291e-05 0.0000000000000000e+00  2.2098372585271769e-05 -4.9537442813895235e-05 0.0000000000000000e+00  0.0000000000000000e+00 0.0000000000000000e+00 0.0000000000000000e+00  0.0000000000000000e+00 0.0000000000000000e+00 0.0000000000000000e+00  -7.1624272658954338e-05 -1.0419446001427693e-04 0.0000000000000000e+00  -1.1968562915958095e-04 -2.0085517731412657e-04 0.0000000000000000e+00  -1.2137329720754925e-04 -2.7975282133435044e-04 0.0000000000000000e+00  -5.7201968851413569e-05 -3.2403513143096081e-04 0.0000000000000000e+00  2.8407494042119712e-05 -1.9037269100214573e-04 0.0000000000000000e+00  1.2446917490295846e-05 -3.3372412799625074e-05 0.0000000000000000e+00  -1.9850912056075048e-05 4.3036509084567625e-05 0.0000000000000000e+00  -2.2696833163786729e-05 5.1612062816385807e-05 0.0000000000000000e+00  -3.6280422346319030e-06 5.4087989907809612e-05 0.0000000000000000e+00  1.0675600283935800e-05 6.1762940386942452e-05 0.0000000000000000e+00  4.8655202802122124e-06 3.0104697385690993e-05 0.0000000000000000e+00  -3.2160652248539972e-05 -2.3789891407083051e-05 0.0000000000000000e+00  -4.4678053224152517e-05 -1.5758062212998828e-04 0.0000000000000000e+00  3.9025040935557326e-05 -3.0858055225881911e-04 0.0000000000000000e+00  1.1699301114044533e-04 -2.6712277661744077e-04 0.0000000000000000e+00  1.2049027106333102e-04 -1.9235223145354447e-04 0.0000000000000000e+00  7.3026763577034299e-05 -9.9976632261021417e-05 0.0000000000000000e+00  0.0000000000000000e+00 0.0000000000000000e+00 0.0000000000000000e+00  0.0000000000000000e+00 0.0000000000000000e+00 0.0000000000000000e+00  -2.1375100293226132e-04 -1.8556640815253750e-04 0.0000000000000000e+00  -3.8617290674598993e-04 -3.7264193754830424e-04 0.0000000000000000e+00  -4.6797020938792254e-04 -5.6236166736903248e-04 0.0000000000000000e+00  -3.9050779074629332e-04 -7.5497445375250502e-04 0.0000000000000000e+00  -2.5463183904807679e-04 -3.2306881694613252e-04 0.0000000000000000e+00  -2.7722480831751824e-04 4.8212646256937442e-05 0.0000000000000000e+00  -2.2238079715657357e-04 -1.6157810774674806e-05 0.0000000000000000e+00  -1.0311581357585381e-04 -3.6811589754560946e-05 0.0000000000000000e+00  -1.5401073709769513e-05 -4.1847473805887199e-05 0.0000000000000000e+00  7.1524253526168119e-05 -4.1417690426098766e-05 0.0000000000000000e+00  1.8715101975087434e-04 -4.3578727412959445e-05 0.0000000000000000e+00  2.8900837469471633e-04 8.9455315637712652e-05 0.0000000000000000e+00  2.7631057934402310e-04 -2.6033882324946029e-04 0.0000000000000000e+00  4.2983029107054589e-04 -7.2200291402884633e-04 0.0000000000000000e+00  5.0134614412423865e-04 -5.4336652226578746e-04 0.0000000000000000e+00  4.1007037179202534e-04 -3.6204247104005210e-04 0.0000000000000000e+00  2.2615244839406355e-04 -1.8078309781455841e-04 0.0000000000000000e+00  0.0000000000000000e+00 0.0000000000000000e+00 0.0000000000000000e+00  0.0000000000000000e+00 0.0000000000000000e+00 0.0000000000000000e+00  -5.2089812195403270e-04 -2.6079199087616683e-04 0.0000000000000000e+00  -1.0146753262195876e-03 -5.3366643272767978e-04 0.0000000000000000e+00  -1.4506716178247126e-03 -8.3307493180726031e-04 0.0000000000000000e+00  -1.7908600602810868e-03 -1.1791749576690151e-03 0.0000000000000000e+00  -1.7212333820280012e-03 -3.9092126166057306e-04 0.0000000000000000e+00  -1.7844096332081398e-03 3.8951300064356904e-04 0.0000000000000000e+00  -1.2279430196963060e-03 2.9467306332735862e-04 0.0000000000000000e+00  -6.0832063625485347e-04 2.4305116174285626e-04 0.0000000000000000e+00  3.5330761161498030e-05 2.3247229698948599e-04 0.0000000000000000e+00  6.8559547025565690e-04 2.6452218811450997e-04 0.0000000000000000e+00  1.3278426406720099e-03 3.4862446253885191e-04 0.0000000000000000e+00  1.9331503689207815e-03 5.0840869744624845e-04 0.0000000000000000e+00  1.8666357663288029e-03 -3.3125629700447845e-04 0.0000000000000000e+00  1.9107864853684219e-03 -1.1778363919479643e-03 0.0000000000000000e+00  1.5361995711771447e-03 -8.3012097326078311e-04 0.0000000000000000e+00  1.0698859970996468e-03 -5.3132669909945513e-04 0.0000000000000000e+00  5.4801270784064489e-04 -2.5959324891461501e-04 0.0000000000000000e+00  0.0000000000000000e+00 0.0000000000000000e+00 0.0000000000000000e+00  0.0000000000000000e+00 0.0000000000000000e+00 0.0000000000000000e+00  -9.3591707505934218e-04 -2.8756329344008561e-04 0.0000000000000000e+00  -1.8733218267462134e-03 -5.8833924173250837e-04 0.0000000000000000e+00  -2.8149286106865846e-03 -9.1670738527356522e-04 0.0000000000000000e+00  -3.7666298591129666e-03 -1.2893358341798623e-03 0.0000000000000000e+00  -3.7762976702345914e-03 -3.6691514774661013e-04 0.0000000000000000e+00  -3.7823519912185723e-03 5.6717537658200761e-04 0.0000000000000000e+00  -2.4872819185105225e-03 4.3286066568122230e-04 0.0000000000000000e+00  -1.2101502112383193e-03 3.5894411699467907e-04 0.0000000000000000e+00  5.9747097329852507e-05 3.3646258183690867e-04 0.0000000000000000e+00  1.3326244354438580e-03 3.6247963533636389e-04 0.0000000000000000e+00  2.6179831454642265e-03 4.3842643318659202e-04 0.0000000000000000e+00  3.9233161181201470e-03 5.6844382572548394e-04 0.0000000000000000e+00  3.9336345753397100e-03 -3.6386403612327753e-04 0.0000000000000000e+00  3.9392419790601442e-03 -1.2903612950890477e-03 0.0000000000000000e+00  2.9364976100214176e-03 -9.2071279376250924e-04 0.0000000000000000e+00  1.9510848972776192e-03 -5.9208191737093491e-04 0.0000000000000000e+00  9.7389758768380065e-04 -2.8968625246280478e-04 0.0000000000000000e+00  0.0000000000000000e+00 0.0000000000000000e+00 0.0000000000000000e+00  0.0000000000000000e+00 0.0000000000000000e+00 0.0000000000000000e+00  -1.3441495469177132e-03 -2.6140090287717804e-04 0.0000000000000000e+00  -2.7137837460420289e-03 -5.3246759059591485e-04 0.0000000000000000e+00  -4.1365923913285058e-03 -8.2303452253486959e-04 0.0000000000000000e+00  -5.6447847969295492e-03 -1.1431152639124226e-03 0.0000000000000000e+00  -5.6982802678094873e-03 -3.5461700772099756e-04 0.0000000000000000e+00  -5.6480335229723488e-03 4.2972143611596646e-04 0.0000000000000000e+00  -3.6770267926364494e-03 3.3012507744614006e-04 0.0000000000000000e+00  -1.7839915923454131e-03 2.6963606183380247e-04 0.0000000000000000e+00  7.2273678467745734e-05 2.4694488497089347e-04 0.0000000000000000e+00  1.9307243504013336e-03 2.6119624656002874e-04 0.0000000000000000e+00  3.8303365725164519e-03 3.1242301528511913e-04 0.0000000000000000e+00  5.8125829054230960e-03 4.0134921596155643e-04 0.0000000000000000e+00  5.8693439660512155e-03 -3.8782054812278380e-04 0.0000000000000000e+00  5.8197457656980036e-03 -1.1775939181554070e-03 0.0000000000000000e+00  4.2649969024380185e-03 -8.4690876042498118e-04 0.0000000000000000e+00  2.7978849429391274e-03 -5.4766865360986628e-04 0.0000000000000000e+00  1.3857308732589388e-03 -2.6882187554157965e-04 0.0000000000000000e+00  0.0000000000000000e+00 0.0000000000000000e+00 0.0000000000000000e+00  0.0000000000000000e+00 0.0000000000000000e+00 0.0000000000000000e+00  -1.6495622598552443e-03 -1.9655343264320989e-04 0.0000000000000000e+00  -3.3399673704782602e-03 -3.9850746075096910e-04 0.0000000000000000e+00  -5.1141817743973446e-03 -6.1116552200280653e-04 0.0000000000000000e+00  -7.0194040911505072e-03 -8.3961245070552867e-04 0.0000000000000000e+00  -7.1003429562332410e-03 -3.5149535362535736e-04 0.0000000000000000e+00  -7.0226225268980201e-03 1.3599609902079893e-04 0.0000000000000000e+00  -4.5576499105296747e-03 7.1510906072160143e-05 0.0000000000000000e+00  -2.2120503926487435e-03 2.9707212154630291e-05 0.0000000000000000e+00  7.6003292766319797e-05 1.0220727105324392e-05 0.0000000000000000e+00  2.3653446397755335e-03 1.2562085133001642e-05 0.0000000000000000e+00  4.7147241032528221e-03 3.6149088816246013e-05 0.0000000000000000e+00  7.1856811463921000e-03 8.0190419893752597e-05 0.0000000000000000e+00  7.2681035015505473e-03 -4.0575344103719967e-04 0.0000000000000000e+00  7.1896115838922586e-03 -8.9026223415742734e-04 0.0000000000000000e+00  5.2401248258841541e-03 -6.4711593495581673e-04 0.0000000000000000e+00  3.4230811008547266e-03 -4.2155386507221240e-04 0.0000000000000000e+00  1.6908597941492135e-03 -2.0781127177265974e-04 0.0000000000000000e+00  0.0000000000000000e+00 0.0000000000000000e+00 0.0000000000000000e+00  0.0000000000000000e+00 0.0000000000000000e+00 0.0000000000000000e+00  -1.7907856780701884e-03 -1.1011712089705295e-04 0.0000000000000000e+00  -3.6292961906573148e-03 -2.2170974295258560e-04 0.0000000000000000e+00  -5.5650798649555877e-03 -3.3609377036202914e-04 0.0000000000000000e+00  -7.6513329174009246e-03 -4.5427036864940630e-04 0.0000000000000000e+00  -7.7437784127771135e-03 -3.5115065364581488e-04 0.0000000000000000e+00  -7.6527479691905634e-03 -2.4871532337345127e-04 0.0000000000000000e+00  -4.9638983374935934e-03 -2.7742317793682435e-04 0.0000000000000000e+00  -2.4114093334119246e-03 -2.9907057435144040e-04 0.0000000000000000e+00  7.4516138353585088e-05 -3.1339752794417886e-04 0.0000000000000000e+00  2.5611472025791181e-03 -3.2065139432832339e-04 0.0000000000000000e+00  5.1157174512854427e-03 -3.2156916224626532e-04 0.0000000000000000e+00  7.8079266590587171e-03 -3.1742150975341685e-04 0.0000000000000000e+00  7.9007172679911933e-03 -4.1468505700062013e-04 0.0000000000000000e+00  7.8091566152940764e-03 -5.1095780308223605e-04 0.0000000000000000e+00  5.6825756272638360e-03 -3.7692731116967395e-04 0.0000000000000000e+00  3.7072004601016828e-03 -2.4813212244324297e-04 0.0000000000000000e+00  1.8296078682975574e-03 -1.2308872888844785e-04 0.0000000000000000e+00  -7.1132013136163638e-12 -6.8648463110628973e-12 0.0000000000000000e+00  0.0000000000000000e+00 0.0000000000000000e+00 0.0000000000000000e+00  -1.7403536250051677e-03 -1.7794356856877550e-05 0.0000000000000000e+00  -3.5279236698987112e-03 -3.3749946582010358e-05 0.0000000000000000e+00  -5.4114085855331145e-03 -4.5848625986025079e-05 0.0000000000000000e+00  -7.4424600435897409e-03 -5.1709804143729465e-05 0.0000000000000000e+00  -7.5330218749052056e-03 -3.5456908716587082e-04 0.0000000000000000e+00  -7.4433544823842559e-03 -6.5818414078080631e-04 0.0000000000000000e+00  -4.8278630816145337e-03 -6.5446302345163342e-04 0.0000000000000000e+00  -2.3460048991236051e-03 -6.5698178005283922e-04 0.0000000000000000e+00  7.0199299413972128e-05 -6.6516004851793179e-04 0.0000000000000000e+00  2.4866659620718596e-03 -6.7907277777606064e-04 0.0000000000000000e+00  4.9692875051178453e-03 -6.9943788218411820e-04 0.0000000000000000e+00  7.5859728770456807e-03 -7.2762840885587821e-04 0.0000000000000000e+00  7.6751942602933856e-03 -4.1753951330127071e-04 0.0000000000000000e+00  7.5839605620039441e-03 -1.0687451351112134e-04 0.0000000000000000e+00  5.5174065855720256e-03 -8.5806813888738629e-05 0.0000000000000000e+00  3.5985128952660261e-03 -5.9719037441721370e-05 0.0000000000000000e+00  1.7756202902297741e-03 -3.0578143405229434e-05 0.0000000000000000e+00  0.0000000000000000e+00 0.0000000000000000e+00 0.0000000000000000e+00  0.0000000000000000e+00 0.0000000000000000e+00 0.0000000000000000e+00  -1.5002793397323013e-03 6.7173894366472268e-05 0.0000000000000000e+00  -3.0412481595394432e-03 1.3878130651384250e-04 0.0000000000000000e+00  -4.6647376611515107e-03 2.1944001979948521e-04 0.0000000000000000e+00  -6.4147970662892890e-03 3.1414794375234420e-04 0.0000000000000000e+00  -6.4929115342074071e-03 -3.6145829655800693e-04 0.0000000000000000e+00  -6.4161227909063151e-03 -1.0377385472642860e-03 0.0000000000000000e+00  -4.1603600008548076e-03 -1.0066648232783647e-03 0.0000000000000000e+00  -2.0193995005058467e-03 -9.9236980190841890e-04 0.0000000000000000e+00  6.4904226266691758e-05 -9.9410111233435281e-04 0.0000000000000000e+00  2.1491305231271227e-03 -1.0118101617495358e-03 0.0000000000000000e+00  4.2898397925863092e-03 -1.0461487380110644e-03 0.0000000000000000e+00  6.5451222687569165e-03 -1.0984739773159404e-03 0.0000000000000000e+00  6.6196929931575648e-03 -4.1585339211354621e-04 0.0000000000000000e+00  6.5397828606110165e-03 2.6710872663993334e-04 0.0000000000000000e+00  4.7589133115669164e-03 1.8521576027949129e-04 0.0000000000000000e+00  3.1042246597400391e-03 1.1646769214830642e-04 0.0000000000000000e+00  1.5318185952437080e-03 5.6168163875892682e-05 0.0000000000000000e+00  0.0000000000000000e+00 0.0000000000000000e+00 0.0000000000000000e+00  0.0000000000000000e+00 0.0000000000000000e+00 0.0000000000000000e+00  -1.0965642228167999e-03 1.3442392479663066e-04 0.0000000000000000e+00  -2.2227453639164694e-03 2.7511566670444516e-04 0.0000000000000000e+00  -3.4089640080198305e-03 4.2852994538481224e-04 0.0000000000000000e+00  -4.6871088505785665e-03 6.0150749549688120e-04 0.0000000000000000e+00  -4.7447383727617634e-03 -3.7128750420593789e-04 0.0000000000000000e+00  -4.6895189310102621e-03 -1.3446004333999280e-03 0.0000000000000000e+00  -3.0365985287300178e-03 -1.2920296650295539e-03 0.0000000000000000e+00  -1.4675046401062379e-03 -1.2639292109618270e-03 0.0000000000000000e+00  6.0044529880442959e-05 -1.2594119161731530e-03 0.0000000000000000e+00  1.5872643354318536e-03 -1.2783182301909042e-03 0.0000000000000000e+00  3.1553512620375967e-03 -1.3212152930704901e-03 0.0000000000000000e+00  4.8065317127919923e-03 -1.3893993809455580e-03 0.0000000000000000e+00  4.8582610883394642e-03 -4.1107100640370254e-04 0.0000000000000000e+00  4.7980244448423415e-03 5.6741789832934870e-04 0.0000000000000000e+00  3.4930260286050096e-03 4.0365998246067082e-04 0.0000000000000000e+00  2.2791871623362974e-03 2.5886759337672842e-04 0.0000000000000000e+00  1.1248979881797296e-03 1.2639928525618008e-04 0.0000000000000000e+00  0.0000000000000000e+00 0.0000000000000000e+00 0.0000000000000000e+00  0.0000000000000000e+00 0.0000000000000000e+00 0.0000000000000000e+00  -5.7335599504538604e-04 1.7662085422956092e-04 0.0000000000000000e+00  -1.1622226118210711e-03 3.6057020392168834e-04 0.0000000000000000e+00  -1.7825628045485874e-03 5.5936596105766654e-04 0.0000000000000000e+00  -2.4510508111834175e-03 7.8091050650734161e-04 0.0000000000000000e+00  -2.4827137376816546e-03 -3.8310978010137984e-04 0.0000000000000000e+00  -2.4547964199235603e-03 -1.5473972090060172e-03 0.0000000000000000e+00  -1.5804212605499742e-03 -1.4798041404353130e-03 0.0000000000000000e+00  -7.5073933067938301e-04 -1.4414516897342817e-03 0.0000000000000000e+00  5.6631415228012192e-05 -1.4313303265723358e-03 0.0000000000000000e+00  8.6350801204321715e-04 -1.4491730400960909e-03 0.0000000000000000e+00  1.6916860542850508e-03 -1.4954551766008790e-03 0.0000000000000000e+00  2.5634837184098564e-03 -1.5713957029680431e-03 0.0000000000000000e+00  2.5871449539316910e-03 -4.0424046949368958e-04 0.0000000000000000e+00 