<?xml version="1.0"?>
<VTKFile type="UnstructuredGrid"  version="0.1"  >
<UnstructuredGrid>
<Piece  NumberOfPoints="589" NumberOfCells="1080">
<Points>
<DataArray  type="Float64"  NumberOfComponents="3"  format="ascii">-9 0 0  -8 0 0  -7 0 0  -6 0 0  -5 0 0  -4 0 0  -3 0 0  -2 0 0  -1 0 0  0 0 0  1 0 0  2 0 0  3 0 0  4 0 0  5 0 0  6 0 0  7 0 0  8 0 0  9 0 0  -9 2 0  -7.99999872953794 2.000001419535761 0  -6.999997409874398 2.000002672288822 0  -5.999995877698929 2.000003623610242 0  -4.999993718053263 2.000004214736145 0  -3.999995994052881 2.000003082493329 0  -2.999998261692056 2.000002060341457 0  -1.999999368663343 2.000001116860251 0  -0.9999995611504118 2.000000347169296 0  8.513421471476697e-07 1.999999930402541 0  1.000001413462455 1.999999952965602 0  2.000001722493697 2.000000321367841 0  3.000001563510585 2.000000693390955 0  4.000001006759363 2.000000807147594 0  5.000000386282744 1.999999948943706 0  6.000000633963191 2.000000480257746 0  7.00000050584597 2.000000579480837 0  8.000000262299508 2.000000370010648 0  9 2 0  -9.000000000004983 4 0  -7.999997655876442 4.000003506212677 0  -6.999995669793685 4.000006550312676 0  -5.999994265277396 4.000008688007232 0  -4.999993439473974 4.000009513165385 0  -3.999996532164841 4.000008721175298 0  -2.99999853893895 4.000005868254233 0  -1.999998994666377 4.000002266445255 0  -0.9999981119224548 3.99999932091167 0  3.503655887233157e-06 3.999997926515712 0  1.00000522380621 3.999998242309116 0  2.000006499236361 3.999999686043218 0  3.000006808672914 4.00000156235923 0  4.000006012578181 4.000003009854235 0  5.000004409692427 4.000001994078513 0  6.00000277111676 4.000002688881284 0  7.000001473409179 4.000002393736344 0  8.000000599611251 4.000001382184413 0  9 4 0  -9 6 0  -7.999995150012383 6.000007441384847 0  -6.999991603441575 6.000014053998399 0  -5.999990338006742 6.000019002585726 0  -4.999991594255563 6.000021533699197 0  -3.999997426618893 6.000017047470886 0  -2.999999880594365 6.000008394941403 0  -1.999998338439373 5.999999494990905 0  -0.999995312376817 5.999994725243277 0  7.502753416512739e-06 5.999993609614809 0  1.000009868854703 5.999994526931576 0  2.000011691317003 5.999997413729874 0  3.000012681894378 6.000002357148102 0  4.000012097496289 6.00000710600996 0  5.000008501731514 6.000008426724079 0  6.000003544782283 6.000008857320047 0  7.00000074532363 6.000007073638379 0  7.999999840170138 6.000003876901019 0  9 6 0  -9 8 0  -7.999987429823207 8.000014691843257 0  -6.99997841246998 8.000028213994694 0  -5.99997632398467 8.000038987243084 0  -4.999983876317719 8.000044430033178 0  -3.999995613282004 8.000024838758456 0  -2.999991923540261 8.000002232587633 0  -1.999986229595195 7.999992065950187 0  -0.9999852704652966 7.999991991856525 0  1.220152066542232e-05 7.999992131334464 0  1.000010030812351 7.99999105999946 0  2.000010360281884 7.99999369535376 0  3.000014602503686 7.99999823470193 0  4.000016258844608 8.000011520020898 0  5.000007292810583 8.000026801566689 0  5.999995688349557 8.00002388305052 0  6.999992439905532 8.000017405880902 0  7.999994820723106 8.000009092345936 0  9 8 0  -9 10 0  -7.99996549722173 10.00002662194265 0  -6.999937505425257 10.00005337095112 0  -5.999923745812582 10.00008029593009 0  -4.999934863410089 10.00010726508315 0  -3.999954336098376 10.00004180346766 0  -2.999948439334798 9.999986279057751 0  -1.99995487455644 9.999999337450653 0  -0.9999717156553102 10.00000358700632 0  1.686277791726335e-05 10.00000462275219 0  1.000006105982783 10.00000420750893 0  1.999992395425361 10.00000322593896 0  2.999979541914342 9.999985797937832 0  3.999980759899933 10.00002240540292 0  4.999964700554163 10.00007156189473 0  5.999954406442315 10.00005314433291 0  6.999961616643131 10.0000350840624 0  7.999978606987997 10.00001742330723 0  9 10 0  -9 12 0  -7.99991751518318 12.00003804579127 0  -6.999839660683119 12.00007782747553 0  -5.999771641038191 12.00012143404753 0  -4.999719828588018 12.0001718130405 0  -3.999730060702316 12.00004881975827 0  -2.99971806473482 11.9999267135711 0  -1.999783454144371 11.99994553010887 0  -0.9998606102937276 11.99995780058699 0  5.674237889569102e-05 11.99996399738984 0  0.9999710987438292 11.99996419027631 0  1.999883973472005 11.99995745956356 0  2.999797974071718 11.99994117777086 0  3.999804722788852 12.00002883852688 0  4.999802141372084 12.00011699468663 0  5.999843101292067 12.00008097833323 0  6.999891669987256 12.00005116530967 0  7.999944780995203 12.00002480514605 0  9 12 0  -9 14 0  -7.999850999933432 14.00004252848293 0  -6.999702457348044 14.0000869886482 0  -5.999554674651432 14.00013548860656 0  -4.999407495364382 14.00019048309497 0  -3.999406076391471 14.00004160015107 0  -2.999402406851755 13.99989063241365 0  -1.999564989836605 13.99991791119315 0  -0.9997275544578841 13.99993631282613 0  0.0001086009081067775 13.99994739044441 0  0.9999420218987003 13.99995187077608 0  1.999771063259814 13.99994990135374 0  2.999594028108056 13.99994127958067 0  3.999591420408655 14.00003083416133 0  4.999593563579011 14.00011940083076 0  5.999701348660701 14.00008400300245 0  6.999803547196781 14.00005343735472 0  7.999902518979414 14.00002596805528 0  9 14 0  -9 16 0  -7.999782637738476 16.00003928617232 0  -6.999562186533548 16.00007999419218 0  -5.999335249997779 16.00012357025023 0  -4.999097772908313 16.00017148070553 0  -3.999089972085623 16.00003644550899 0  -2.999094842061816 15.99990179846105 0  -1.999346639553486 15.99992581177918 0  -0.9995894012063603 15.99994412977051 0  0.00017138798472074 15.99995718011233 0  0.9999304675463331 15.9999653572029 0  1.999682477697829 15.99996895910779 0  2.999421631053407 15.99996821329757 0  3.999413706634401 16.0000319157134 0  4.999422028276081 16.00009541984643 0  5.999581921928229 16.00006770131979 0  6.999728319861317 16.00004332559561 0  7.999866213628533 16.00002112673773 0  9 16 0  -9 18 0  -7.999726612196436 18.00003035700317 0  -6.999447823569448 18.00006152935278 0  -5.999157935482981 18.00009431697269 0  -4.998850643142775 18.00012948103983 0  -3.998838777010445 18.00003312661396 0  -2.9988478385846 17.99993661893417 0  -1.999164482465615 17.99995650189043 0  -0.9994654782811455 17.99997302562954 0  0.0002410039028910896 17.99998647085825 0  0.9999471975185658 17.99999715204447 0  1.999645344355042 18.0000054148228 0  2.999327317013981 18.00001165208141 0  3.999316904791624 18.00003255542525 0  4.999328018232994 18.00005303075584 0  5.999516456102905 18.000038029957 0  6.999687096316555 18.00002450723482 0  7.999846331241689 18.00001199718458 0  9 18 0  -9 20 0  -7.99969217216034 20.0000181661426 0  -6.999377824357484 20.00003660367008 0  -5.999050182309115 20.00005556008119 0  -4.998701960668897 20.00007523315685 0  -3.998688293830105 20.0000306185171 0  -2.998699603607216 19.99998583675522 0  -1.999044967445465 20.00000063450098 0  -0.9993714940347921 20.00001424190313 0  0.0003117664745429545 20.00002682332624 0  0.9999961249355649 20.00003862570928 0  1.999672932459799 20.0000499771845 0  2.999333263746088 20.00006129398254 0  3.999322337020364 20.00003242344847 0  4.999334125645349 20.00000316790169 0  5.999522158694631 20.00000244713757 0  6.99969148114595 20.00000163866059 0  7.999848707976636 20.00000081636387 0  8.999999999969331 19.99999999998973 0  -9 22 0  -7.999683795863491 22.00000488917344 0  -6.999360968854649 22.00000960184891 0  -5.999024693156821 22.00001393568529 0  -4.998667737942028 22.00001763598169 0  -3.998654162216125 22.00002896154891 0  -2.998665731737435 22.00004010671589 0  -1.999000847600702 22.00004953013464 0  -0.9993166816693926 22.00005956378365 0  0.0003781336866234627 22.00007029349536 0  1.000075271916305 22.00008190421642 0  1.999766463540553 22.00009467890414 0  2.999443249391877 22.00010900099806 0  3.999433471971273 22.0000318260272 0  4.999444242410319 21.99995430312374 0  5.999602681075063 21.99996721625844 0  6.999744235645949 21.99997882608282 0  7.999874818230603 21.99998961221189 0  9 22 0  -9 24 0  -7.999701895823149 23.99999231773344 0  -6.999397875921518 23.99998411448398 0  -5.999081869355119 23.99997484394374 0  -4.99874751315953 23.99996390897599 0  -3.998735489840088 24.00002798921376 0  -2.998745810169348 24.00009186144734 0  -1.999033895746924 24.00009598306472 0  -0.9993044858225015 24.00010209954069 0  0.000435210080361613 24.00011023755068 0  1.000178225271426 24.00012052445108 0  1.999917658926279 24.00013318809355 0  2.999646500132678 24.00014855799381 0  3.999639094248374 24.00003089238604 0  4.999647547407589 23.9999128999319 0  5.999750715331482 23.99993720039736 0  6.999840863233273 23.99995930956402 0  7.999922524408015 23.99998000224272 0  9 24 0  -9 26 0  -7.99974364579873 25.99998182993658 0  -6.999482682755645 25.99996289553458 0  -5.999212401808268 25.99994240813613 0  -4.998927893665827 25.99991953076754 0  -3.998918502425335 26.0000275480649 0  -2.998926445762434 26.00013533519626 0  -1.999136960989365 26.00013445390106 0  -0.9993334492806112 26.00013654539042 0  0.0004790128245406553 26.0001415819867 0  1.000295527097503 26.00014963329983 0  2.00011126725341 26.00016086735905 0  2.999921368136035 26.00017554981288 0  3.999917151930567 26.00002976884932 0  4.999922408845544 25.99988368620884 0  5.999950800506762 25.9999159521775 0  6.999971419195483 25.99994546077436 0  7.99998696261204 25.99997317312567 0  9 26 0  -9 28 0  -7.999803814518091 27.99997439925333 0  -6.99960472997648 27.99994788753422 0  -5.999399795410695 27.9999195306665 0  -4.99918595372334 27.99988834829886 0  -3.99917990448385 28.00002750453168 0  -2.999184711067146 28.00016641088453 0  -1.999296168776522 28.00016102932757 0  -0.9993982276799959 28.00015920747392 0  0.000506609900609401 28.00016086311209 0  1.000415949703279 28.00016600796845 0  2.000327472204378 28.00017474740111 0  3.000238887916528 28.00018728043177 0  4.000238300501077 28.00002860526995 0  5.000239865408805 27.99986965247237 0  6.000181942761856 27.99990573625178 0  7.000122253189057 27.99993879895
[...]
<PointData  Vectors="f_42"> 
<DataArray  type="Float64"  Name="f_42"  NumberOfComponents="3" format="ascii">0.0000000000000000e+00 0.0000000000000000e+00 0.0000000000000000e+00  0.0000000000000000e+00 0.0000000000000000e+00 0.0000000000000000e+00  0.0000000000000000e+00 0.0000000000000000e+00 0.0000000000000000e+00  0.0000000000000000e+00 0.0000000000000000e+00 0.0000000000000000e+00  0.0000000000000000e+00 0.0000000000000000e+00 0.0000000000000000e+00  0.0000000000000000e+00 0.0000000000000000e+00 0.0000000000000000e+00  0.0000000000000000e+00 0.0000000000000000e+00 0.0000000000000000e+00  0.0000000000000000e+00 0.0000000000000000e+00 0.0000000000000000e+00  0.0000000000000000e+00 0.0000000000000000e+00 0.0000000000000000e+00  0.0000000000000000e+00 0.0000000000000000e+00 0.0000000000000000e+00  0.0000000000000000e+00 0.0000000000000000e+00 0.0000000000000000e+00  0.0000000000000000e+00 0.0000000000000000e+00 0.0000000000000000e+00  0.0000000000000000e+00 0.0000000000000000e+00 0.0000000000000000e+00  0.0000000000000000e+00 0.0000000000000000e+00 0.0000000000000000e+00  0.0000000000000000e+00 0.0000000000000000e+00 0.0000000000000000e+00  0.0000000000000000e+00 0.0000000000000000e+00 0.0000000000000000e+00  0.0000000000000000e+00 0.0000000000000000e+00 0.0000000000000000e+00  0.0000000000000000e+00 0.0000000000000000e+00 0.0000000000000000e+00  0.0000000000000000e+00 0.0000000000000000e+00 0.0000000000000000e+00  0.0000000000000000e+00 0.0000000000000000e+00 0.0000000000000000e+00  1.2704620552760030e-06 1.4195357620628840e-06 0.0000000000000000e+00  2.5901256080747529e-06 2.6722888223272153e-06 0.0000000000000000e+00  4.1223010720314986e-06 3.6236102420988492e-06 0.0000000000000000e+00  6.2819467248808783e-06 4.2147361437991222e-06 0.0000000000000000e+00  4.0059471205088558e-06 3.0824933306687578e-06 0.0000000000000000e+00  1.7383079405176114e-06 2.0603414579728520e-06 0.0000000000000000e+00  6.3133665781186476e-07 1.1168602509046300e-06 0.0000000000000000e+00  4.3884958703240798e-07 3.4716929735589439e-07 0.0000000000000000e+00  8.5134214714766972e-07 -6.9597460685214131e-08 0.0000000000000000e+00  1.4134624559574710e-06 -4.7034396875278905e-08 0.0000000000000000e+00  1.7224936957277344e-06 3.2136784393787007e-07 0.0000000000000000e+00  1.5635105869041228e-06 6.9339095320937353e-07 0.0000000000000000e+00  1.0067593654384043e-06 8.0714759323428352e-07 0.0000000000000000e+00  3.8628274240620914e-07 -5.1056294503653505e-08 0.0000000000000000e+00  6.3396318902560101e-07 4.8025774619447868e-07 0.0000000000000000e+00  5.0584596647640899e-07 5.7948083530732892e-07 0.0000000000000000e+00  2.6229949815220488e-07 3.7001064698172858e-07 0.0000000000000000e+00  0.0000000000000000e+00 0.0000000000000000e+00 0.0000000000000000e+00  -4.9820587634006413e-12 0.0000000000000000e+00 0.0000000000000000e+00  2.3441235664372061e-06 3.5062126757060518e-06 0.0000000000000000e+00  4.3302063203673892e-06 6.5503126760627698e-06 0.0000000000000000e+00  5.7347226030637378e-06 8.6880072306000710e-06 0.0000000000000000e+00  6.5605260210847486e-06 9.5131653859604099e-06 0.0000000000000000e+00  3.4678351575438955e-06 8.7211753001236992e-06 0.0000000000000000e+00  1.4610610494283026e-06 5.8682542353425582e-06 0.0000000000000000e+00  1.0053336228831146e-06 2.2664452529328885e-06 0.0000000000000000e+00  1.8880775453685774e-06 -6.7908833136068612e-07 0.0000000000000000e+00  3.5036558872331570e-06 -2.0734842873884163e-06 0.0000000000000000e+00  5.2238062104515983e-06 -1.7576908756221823e-06 0.0000000000000000e+00  6.4992363613399504e-06 -3.1395678258915362e-07 0.0000000000000000e+00  6.8086729156480647e-06 1.5623592294374657e-06 0.0000000000000000e+00  6.0125781800766640e-06 3.0098542373090379e-06 0.0000000000000000e+00  4.4096924218222435e-06 1.9940785142702741e-06 0.0000000000000000e+00  2.7711167525431809e-06 2.6888812874430399e-06 0.0000000000000000e+00  1.4734091794418485e-06 2.3937363443353706e-06 0.0000000000000000e+00  5.9961126070669592e-07 1.3821844115053508e-06 0.0000000000000000e+00  0.0000000000000000e+00 0.0000000000000000e+00 0.0000000000000000e+00  0.0000000000000000e+00 0.0000000000000000e+00 0.0000000000000000e+00  4.8499876008724931e-06 7.4413848417603832e-06 0.0000000000000000e+00  8.3965584287175442e-06 1.4053998402236229e-05 0.0000000000000000e+00  9.6619932490222613e-06 1.9002585730861395e-05 0.0000000000000000e+00  8.4057444372393461e-06 2.1533699202018768e-05 0.0000000000000000e+00  2.5733811084306683e-06 1.7047470891355956e-05 0.0000000000000000e+00  1.1940563510119977e-07 8.3949414064551637e-06 0.0000000000000000e+00  1.6615606275825978e-06 -5.0500910499752341e-07 0.0000000000000000e+00  4.6876231828767852e-06 -5.2747567220236519e-06 0.0000000000000000e+00  7.5027534165127387e-06 -6.3903851956872584e-06 0.0000000000000000e+00  9.8688547029125652e-06 -5.4730684216173878e-06 0.0000000000000000e+00  1.1691317004424520e-05 -2.5862701299643001e-06 0.0000000000000000e+00  1.2681894376944801e-05 2.3571481058166661e-06 0.0000000000000000e+00  1.2097496286402122e-05 7.1060099606033644e-06 0.0000000000000000e+00  8.5017315174405301e-06 8.4267240797562436e-06 0.0000000000000000e+00  3.5447822751792573e-06 8.8573200498681521e-06 0.0000000000000000e+00  7.4532362791252292e-07 7.0736383776349470e-06 0.0000000000000000e+00  -1.5982986201737916e-07 3.8769010193320222e-06 0.0000000000000000e+00  0.0000000000000000e+00 0.0000000000000000e+00 0.0000000000000000e+00  0.0000000000000000e+00 0.0000000000000000e+00 0.0000000000000000e+00  1.2570176780885761e-05 1.4691843258828457e-05 0.0000000000000000e+00  2.1587530019725651e-05 2.8213994691511689e-05 0.0000000000000000e+00  2.3676015329494030e-05 3.8987243080425429e-05 0.0000000000000000e+00  1.6123682280690564e-05 4.4430033187704985e-05 0.0000000000000000e+00  4.3867179976663344e-06 2.4838758463034716e-05 0.0000000000000000e+00  8.0764597376144602e-06 2.2325876315853338e-06 0.0000000000000000e+00  1.3770404804924778e-05 -7.9340498117819733e-06 0.0000000000000000e+00  1.4729534702723425e-05 -8.0081434741652438e-06 0.0000000000000000e+00  1.2201520665422322e-05 -7.8686655408157263e-06 0.0000000000000000e+00  1.0030812351855946e-05 -8.9400005555701120e-06 0.0000000000000000e+00  1.0360281884953346e-05 -6.3046462523321032e-06 0.0000000000000000e+00  1.4602503683952616e-05 -1.7652980630893803e-06 0.0000000000000000e+00  1.6258844607753547e-05 1.1520020901253274e-05 0.0000000000000000e+00  7.2928105745337785e-06 2.6801566679815238e-05 0.0000000000000000e+00  -4.3116504429536585e-06 2.3883050520169616e-05 0.0000000000000000e+00  -7.5600944669629535e-06 1.7405880892694516e-05 0.0000000000000000e+00  -5.1792769020934726e-06 9.0923459363788642e-06 0.0000000000000000e+00  0.0000000000000000e+00 0.0000000000000000e+00 0.0000000000000000e+00  0.0000000000000000e+00 0.0000000000000000e+00 0.0000000000000000e+00  3.4502778269912013e-05 2.6621942656868628e-05 0.0000000000000000e+00  6.2494574745724851e-05 5.3370951122920656e-05 0.0000000000000000e+00  7.6254187415636198e-05 8.0295930097083542e-05 0.0000000000000000e+00  6.5136589905805405e-05 1.0726508314704431e-04 0.0000000000000000e+00  4.5663901627890187e-05 4.1803467655638938e-05 0.0000000000000000e+00  5.1560665200967830e-05 -1.3720942242731144e-05 0.0000000000000000e+00  4.5125443555802919e-05 -6.6254933896768956e-07 0.0000000000000000e+00  2.8284344689617823e-05 3.5870063104905506e-06 0.0000000000000000e+00  1.6862777917263347e-05 4.6227521821148386e-06 0.0000000000000000e+00  6.1059827855260551e-06 4.2075089365102130e-06 0.0000000000000000e+00  -7.6045746363368590e-06 3.2259389491557681e-06 0.0000000000000000e+00  -2.0458085660996142e-05 -1.4202062175310530e-05 0.0000000000000000e+00  -1.9240100064718771e-05 2.2405402918145428e-05 0.0000000000000000e+00  -3.5299445831420984e-05 7.1561894727345817e-05 0.0000000000000000e+00  -4.5593557676838440e-05 5.3144332912648368e-05 0.0000000000000000e+00  -3.8383356870558334e-05 3.5084062395995263e-05 0.0000000000000000e+00  -2.1393012009564662e-05 1.7423307227418835e-05 0.0000000000000000e+00  0.0000000000000000e+00 0.0000000000000000e+00 0.0000000000000000e+00  0.0000000000000000e+00 0.0000000000000000e+00 0.0000000000000000e+00  8.2484816821423520e-05 3.8045791269284306e-05 0.0000000000000000e+00  1.6033931688227491e-04 7.7827475531254129e-05 0.0000000000000000e+00  2.2835896180497696e-04 1.2143404755294661e-04 0.0000000000000000e+00  2.8017141198808976e-04 1.7181304050298914e-04 0.0000000000000000e+00  2.6993929768338800e-04 4.8819758269612371e-05 0.0000000000000000e+00  2.8193526517919612e-04 -7.3286428899651800e-05 0.0000000000000000e+00  2.1654585562987615e-04 -5.4469891123359317e-05 0.0000000000000000e+00  1.3938970627341087e-04 -4.2199413018021998e-05 0.0000000000000000e+00  5.6742378895691020e-05 -3.6002610156192957e-05 0.0000000000000000e+00  -2.8901256172322355e-05 -3.5809723694658693e-05 0.0000000000000000e+00  -1.1602652799663722e-04 -4.2540436439854156e-05 0.0000000000000000e+00  -2.0202592828159430e-04 -5.8822229160102441e-05 0.0000000000000000e+00  -1.9527721114392525e-04 2.8838526892059514e-05 0.0000000000000000e+00  -1.9785862792417932e-04 1.1699468664127300e-04 0.0000000000000000e+00  -1.5689870793436390e-04 8.0978333238749579e-05 0.0000000000000000e+00  -1.0833001273810503e-04 5.1165309669971458e-05 0.0000000000000000e+00  -5.5219004803582643e-05 2.4805146049736839e-05 0.0000000000000000e+00  0.0000000000000000e+00 0.0000000000000000e+00 0.0000000000000000e+00  0.0000000000000000e+00 0.0000000000000000e+00 0.0000000000000000e+00  1.4900006655297487e-04 4.2528482930372690e-05 0.0000000000000000e+00  2.9754265195370129e-04 8.6988648200021925e-05 0.0000000000000000e+00  4.4532534856483032e-04 1.3548860655737067e-04 0.0000000000000000e+00  5.9250463561295386e-04 1.9048309496629801e-04 0.0000000000000000e+00  5.9392360852777840e-04 4.1600151085796809e-05 0.0000000000000000e+00  5.9759314824683700e-04 -1.0936758634962760e-04 0.0000000000000000e+00  4.3501016339673169e-04 -8.2088806860751908e-05 0.0000000000000000e+00  2.7244554211750216e-04 -6.3687173882932320e-05 0.0000000000000000e+00  1.0860090810677750e-04 -5.2609555595050344e-05 0.0000000000000000e+00  -5.7978101301087987e-05 -4.8129223914220362e-05 0.0000000000000000e+00  -2.2893674018194558e-04 -5.0098646252702889e-05 0.0000000000000000e+00  -4.0597189194271292e-04 -5.8720419334780177e-05 0.0000000000000000e+00  -4.0857959135161650e-04 3.0834161322027558e-05 0.0000000000000000e+00  -4.0643642098487899e-04 1.1940083075546426e-04 0.0000000000000000e+00  -2.9865133929992543e-04 8.4003002440425441e-05 0.0000000000000000e+00  -1.9645280321913856e-04 5.3437354711783577e-05 0.0000000000000000e+00  -9.7481020584391163e-05 2.5968055276098964e-05 0.0000000000000000e+00  0.0000000000000000e+00 0.0000000000000000e+00 0.0000000000000000e+00  0.0000000000000000e+00 0.0000000000000000e+00 0.0000000000000000e+00  2.1736226153975846e-04 3.9286172320201432e-05 0.0000000000000000e+00  4.3781346645048084e-04 7.9994192177337690e-05 0.0000000000000000e+00  6.6475000222243413e-04 1.2357025023829136e-04 0.0000000000000000e+00  9.0222709168651279e-04 1.7148070551826775e-04 0.0000000000000000e+00  9.1002791437741341e-04 3.6445509007633237e-05 0.0000000000000000e+00  9.0515793818454456e-04 -9.8201538942852698e-05 0.0000000000000000e+00  6.5336044651219968e-04 -7.4188220821243955e-05 0.0000000000000000e+00  4.1059879363903137e-04 -5.5870229496801912e-05 0.0000000000000000e+00  1.7138798472074001e-04 -4.2819887663147526e-05 0.0000000000000000e+00  -6.9532453668003349e-05 -3.4642797104488499e-05 0.0000000000000000e+00  -3.1752230217320897e-04 -3.1040892215881167e-05 0.0000000000000000e+00  -5.7836894658863181e-04 -3.1786702430823262e-05 0.0000000000000000e+00  -5.8629336559954857e-04 3.1915713421259150e-05 0.0000000000000000e+00  -5.7797172391370224e-04 9.5419846424130183e-05 0.0000000000000000e+00  -4.1807807176608700e-04 6.7701319801514109e-05 0.0000000000000000e+00  -2.7168013868601813e-04 4.3325595604027994e-05 0.0000000000000000e+00  -1.3378637146281298e-04 2.1126737719507519e-05 0.0000000000000000e+00  0.0000000000000000e+00 0.0000000000000000e+00 0.0000000000000000e+00  0.0000000000000000e+00 0.0000000000000000e+00 0.0000000000000000e+00  2.7338780357816889e-04 3.0357003172800348e-05 0.0000000000000000e+00  5.5217643055191555e-04 6.1529352782265775e-05 0.0000000000000000e+00  8.4206451701982551e-04 9.4316972686135869e-05 0.0000000000000000e+00  1.1493568572238416e-03 1.2948103985762095e-04 0.0000000000000000e+00  1.1612229895560696e-03 3.3126613943727800e-05 0.0000000000000000e+00  1.1521614154001512e-03 -6.3381065810385619e-05 0.0000000000000000e+00  8.3551753438571258e-04 -4.3498109569346552e-05 0.0000000000000000e+00  5.3452171885194914e-04 -2.6974370468280191e-05 0.0000000000000000e+00  2.4100390289108964e-04 -1.3529141741996472e-05 0.0000000000000000e+00  -5.2802481433118374e-05 -2.8479555269870419e-06 0.0000000000000000e+00  -3.5465564496131986e-04 5.4148227861861436e-06 0.0000000000000000e+00  -6.7268298601781532e-04 1.1652081390801137e-05 0.0000000000000000e+00  -6.8309520837392054e-04 3.2555425240871591e-05 0.0000000000000000e+00  -6.7198176700484233e-04 5.3030755817908720e-05 0.0000000000000000e+00  -4.8354389708906624e-04 3.8029956986060856e-05 0.0000000000000000e+00  -3.1290368343902516e-04 2.4507234831742499e-05 0.0000000000000000e+00  -1.5366875830871403e-04 1.1997184597570073e-05 0.0000000000000000e+00  0.0000000000000000e+00 0.0000000000000000e+00 0.0000000000000000e+00  0.0000000000000000e+00 0.0000000000000000e+00 0.0000000000000000e+00  3.0782783967038915e-04 1.8166142594136435e-05 0.0000000000000000e+00  6.2217564251840435e-04 3.6603670082582603e-05 0.0000000000000000e+00  9.4981769088144140e-04 5.5560081213352832e-05 0.0000000000000000e+00  1.2980393311013479e-03 7.5233156852326378e-05 0.0000000000000000e+00  1.3117061698962383e-03 3.0618517113063182e-05 0.0000000000000000e+00  1.3003963927796750e-03 -1.4163244787856475e-05 0.0000000000000000e+00  9.5503255453473581e-04 6.3450097754610000e-07 0.0000000000000000e+00  6.2850596520753598e-04 1.4241903126396491e-05 0.0000000000000000e+00  3.1176647454295452e-04 2.6823326265583517e-05 0.0000000000000000e+00  -3.8750644344896442e-06 3.8625709293607881e-05 0.0000000000000000e+00  -3.2706754019682684e-04 4.9977184502110014e-05 0.0000000000000000e+00  -6.6673625391014001e-04 6.1293982507557203e-05 0.0000000000000000e+00  -6.7766297963245674e-04 3.2423448446382863e-05 0.0000000000000000e+00  -6.6587435465240098e-04 3.1679017037072629e-06 0.0000000000000000e+00  -4.7784130536866829e-04 2.4471375506401408e-06 0.0000000000000000e+00  -3.0851885405104866e-04 1.6386605907745969e-06 0.0000000000000000e+00  -1.5129202338087246e-04 8.1636383933421987e-07 0.0000000000000000e+00  -3.0669214367038230e-11 -1.0253975824432562e-11 0.0000000000000000e+00  0.0000000000000000e+00 0.0000000000000000e+00 0.0000000000000000e+00  3.1620413651255939e-04 4.8891734356953573e-06 0.0000000000000000e+00  6.3903114534551500e-04 9.6018489093372330e-06 0.0000000000000000e+00  9.7530684317592394e-04 1.3935685293651197e-05 0.0000000000000000e+00  1.3322620579736333e-03 1.7635981688627493e-05 0.0000000000000000e+00  1.3458377838729777e-03 2.8961548921347578e-05 0.0000000000000000e+00  1.3342682625635271e-03 4.0106715899444372e-05 0.0000000000000000e+00  9.9915239930292200e-04 4.9530134669179666e-05 0.0000000000000000e+00  6.8331833060635504e-04 5.9563783653028915e-05 0.0000000000000000e+00  3.7813368662346274e-04 7.0293495352099697e-05 0.0000000000000000e+00  7.5271916304934996e-05 8.1904216399937134e-05 0.0000000000000000e+00  -2.3353645944740071e-04 9.4678904114936513e-05 0.0000000000000000e+00  -5.5675060812371594e-04 1.0900099803712792e-04 0.0000000000000000e+00  -5.6652802872112005e-04 3.1826027214358672e-05 0.0000000000000000e+00  -5.5575758968271687e-04 -4.5696876260225713e-05 0.0000000000000000e+00  -3.9731892494037447e-04 -3.2783741555267530e-05 0.0000000000000000e+00  -2.5576435405712196e-04 -2.1173917156394077e-05 0.0000000000000000e+00  -1.2518176940082542e-04 -1.0387788096166708e-05 0.0000000000000000e+00  0.0000000000000000e+00 0.0000000000000000e+00 0.0000000000000000e+00  0.0000000000000000e+00 0.0000000000000000e+00 0.0000000000000000e+00  2.9810417686504853e-04 -7.6822665642337535e-06 0.0000000000000000e+00  6.0212407848108111e-04 -1.5885516005482352e-05 0.0000000000000000e+00  9.1813064487478147e-04 -2.5156056250589237e-05 0.0000000000000000e+00  1.2524868404786794e-03 -3.6091024031751270e-05 0.0000000000000000e+00  1.2645101599116308e-03 2.7989213763976700e-05 0.0000000000000000e+00  1.2541898306514029e-03 9.1861447319383947e-05 0.0000000000000000e+00  9.6610425307738280e-04 9.5983064705954183e-05 0.0000000000000000e+00  6.9551417749794727e-04 1.0209954067620621e-04 0.0000000000000000e+00  4.3521008036161304e-04 1.1023755066777327e-04 0.0000000000000000e+00  1.7822527142425163e-04 1.2052445106868467e-04 0.0000000000000000e+00  -8.2341073716730314e-05 1.3318809356866165e-04 0.0000000000000000e+00  -3.5349986732239393e-04 1.4855799381988441e-04 0.0000000000000000e+00  -3.6090575163636460e-04 3.0892386048872979e-05 0.0000000000000000e+00  -3.5245259241198357e-04 -8.7100068119377356e-05 0.0000000000000000e+00  -2.4928466851702668e-04 -6.2799602622079983e-05 0.0000000000000000e+00  -1.5913676673327571e-04 -4.0690435984632042e-05 0.0000000000000000e+00  -7.7475591979780475e-05 -1.9997757282777151e-05 0.0000000000000000e+00  0.0000000000000000e+00 0.0000000000000000e+00 0.0000000000000000e+00  0.0000000000000000e+00 0.0000000000000000e+00 0.0000000000000000e+00  2.5635420126162057e-04 -1.8170063408035008e-05 0.0000000000000000e+00  5.1731724435105859e-04 -3.7104465422347427e-05 0.0000000000000000e+00  7.8759819173530551e-04 -5.7591863870084690e-05 0.0000000000000000e+00  1.0721063341792292e-03 -8.0469232457200222e-05 0.0000000000000000e+00  1.0814975746618559e-03 2.7548064909732362e-05 0.0000000000000000e+00  1.0735542375688190e-03 1.3533519627083605e-04 0.0000000000000000e+00  8.6303901063291904e-04 1.3445390106007181e-04 0.0000000000000000e+00  6.6655071938956823e-04 1.3654539043908917e-04 0.0000000000000000e+00  4.7901282454065533e-04 1.4158198671074628e-04 0.0000000000000000e+00  2.9552709750388910e-04 1.4963329983404451e-04 0.0000000000000000e+00  1.1126725341023818e-04 1.6086735901884254e-04 0.0000000000000000e+00  -7.8631863965474588e-05 1.7554981288170931e-04 0.0000000000000000e+00  -8.2848069429641754e-05 2.9768849333541299e-05 0.0000000000000000e+00  -7.7591154461710766e-05 -1.1631379115282877e-04 0.0000000000000000e+00  -4.9199493241796773e-05 -8.4047822522498493e-05 0.0000000000000000e+00  -2.8580804517750814e-05 -5.4539225628744672e-05 0.0000000000000000e+00  -1.3037387954283049e-05 -2.6826874302423743e-05 0.0000000000000000e+00  0.0000000000000000e+00 0.0000000000000000e+00 0.0000000000000000e+00  0.0000000000000000e+00 0.0000000000000000e+00 0.0000000000000000e+00  1.9618548191095334e-04 -2.5600746669578064e-05 0.0000000000000000e+00  3.9527002351846428e-04 -5.2112465777679520e-05 0.0000000000000000e+00  6.0020458930299997e-04 -8.0469333502919134e-05 0.0000000000000000e+00  8.1404627666169899e-04 -1.1165170114853355e-04 0.0000000000000000e+00  8.2009551614463762e-04 2.7504531671818496e-05 0.0000000000000000e+00  8.1528893285549538e-04 1.6641088450638033e-04 0.0000000000000000e+00  7.0383122347673812e-04 1.6102932753610439e-04 0.0000000000000000e+00  6.0177232000384968e-04 1.5920747392089363e-04 0.0000000000000000e+00  5.0660990060940095e-04 1.6086311205960638e-04 0.0000000000000000e+00  4.1594970327926142e-04 1.6600796844406257e-04 0.0000000000000000e+00  3.2747220437967137e-04 1.7474740111992563e-04 0.0000000000000000e+00  2.3888791653136135e-04 1.8728043176797029e-04 0.0000000000000000e+00  2.3830050107435279e-04 2.8605269945853758e-05 0.0000000000000000e+00  2.3986540880266782e-04 -1.3034752763015263e-04 0.0000000000000000e+00  1.8194276185650850e-04 -9.4263748204839856e-05 0.0000000000000000e+00  1.22