<?xml version="1.0"?>
<VTKFile type="UnstructuredGrid"  version="0.1"  >
<UnstructuredGrid>
<Piece  NumberOfPoints="589" NumberOfCells="1080">
<Points>
<DataArray  type="Float64"  NumberOfComponents="3"  format="ascii">-9 0 0  -8 0 0  -7 0 0  -6 0 0  -5 0 0  -4 0 0  -3 0 0  -2 0 0  -1 0 0  0 0 0  1 0 0  2 0 0  3 0 0  4 0 0  5 0 0  6 0 0  7 0 0  8 0 0  9 0 0  -9 2 0  -8.000007926097474 1.999988271099466 0  -7.000016636566844 1.999977964388333 0  -6.000027949521557 1.999970231836079 0  -5.000045999287836 1.999965569733201 0  -4.000027520375471 1.999974342037358 0  -3.000008459789597 1.999982535097603 0  -1.999999070648351 1.999990169288423 0  -0.9999973088701613 1.999996199389698 0  -3.096246651546898e-07 1.999998847033608 0  0.9999963425307231 1.999997032903943 0  1.999996931925979 1.999991197799122 0  3.000004341988068 1.999984033524459 0  4.000019473564597 1.999976357906048 0  5.00004133127957 1.999973213728642 0  6.000024941842659 1.999974391955139 0  7.000014823901965 1.99998027186074 0  8.00000707337837 1.999989327516097 0  9 2 0  -9 4 0  -8.000012714518462 3.999970854222153 0  -7.000022863220417 3.999945632724923 0  -6.000028951694273 3.99992818219098 0  -5.00003130078077 3.999922176956704 0  -4.000004536467401 3.999926221484038 0  -2.999986475799681 3.999949105568638 0  -1.999981529177354 3.999978885899198 0  -0.9999879634813742 4.000002829479112 0  -6.033604435752808e-07 4.000012495751808 0  0.9999864771784124 4.000005003573641 0  1.999979101632479 3.999984709470745 0  2.99998309238714 3.999957228668864 0  4.000000207774639 3.999929611756041 0  5.000026161165145 3.99992040502346 0  6.000024797497872 3.999929977707272 0  7.000020177916225 3.999947841558936 0  8.000011437842598 3.999972188585686 0  9 4 0  -9 6 0  -8.00002776524005 5.999937744011654 0  -7.000045330724969 5.999882220705268 0  -6.00004491145838 5.9998403546969 0  -5.000024270718228 5.999818792109163 0  -3.999972288614987 5.999852644295471 0  -2.999948503755225 5.999923342396853 0  -1.999957506605486 5.999997439770326 0  -0.9999803784914016 6.000038647960679 0  -3.525019150068983e-06 6.000046955354288 0  0.9999757112630828 6.000033629883535 0  1.999959980005503 5.999996761205221 0  2.999954268207607 5.999934490697468 0  3.999966753383328 5.999869940911647 0  5.00001108871642 5.999838037751728 0  6.000037676787024 5.999852402012124 0  7.000042012887945 5.999889482272756 0  8.000026591882822 5.99994119564578 0  9 6 0  -9 8 0  -8.000083604011389 7.99987772046529 0  -7.00013973067279 7.999764198190981 0  -6.000141753360509 7.999671331956014 0  -5.00006685229356 7.999618745205031 0  -3.999966608529483 7.999774886189133 0  -2.999984794347311 7.999958321949492 0  -2.000022103940732 8.000047741447069 0  -1.000025058885947 8.000057991112683 0  -2.473373204063887e-06 8.000060978101276 0  1.000014507828745 8.000069927390848 0  2.000007877386421 8.000032639957926 0  2.999964702287296 7.999969089313919 0  3.999950376363807 7.999811825990247 0  5.000048894842672 7.999634392582744 0  6.000139550718481 7.999683987993301 0  7.000142861054203 7.999772610194498 0  8.000086416346834 7.999881853662925 0  9 8 0  -9 10 0  -8.000249264739459 9.999782738393336 0  -7.000450452879792 9.999563660563807 0  -6.000546200890017 9.999341371217962 0  -5.000456572365185 9.99911547913818 0  -4.000297910291345 9.999619057444228 0  -3.00032339061848 10.0000520630208 0  -2.00025850954584 9.999977685456999 0  -1.000118787508251 9.999953815715822 0  -1.576736722176564e-05 9.999947992098162 0  1.000086419430255 9.999948425621051 0  2.000222291137986 9.999945662370855 0  3.000342230378051 10.00010101801699 0  4.000327742913986 9.999690529232099 0  5.000507856974119 9.999148979809776 0  6.00059061967332 9.999359611258701 0  7.000482611335164 9.99957333383353 0  8.000266050071582 9.999786951465653 0  9 10 0  -9 12 0  -8.000606827375554 11.99969517146435 0  -7.001182275401519 11.99937622235772 0  -6.001690878516099 11.99902626269389 0  -5.002088631206916 11.99862173863619 0  -4.002007850397861 11.99953902180002 0  -3.002080916354161 12.00044712205553 0  -2.001427824239357 12.00033716479608 0  -1.000702180992281 12.00027764728219 0  5.086293902478798e-05 12.00026600481471 0  1.000811317414683 12.00030411898244 0  2.001562358190911 12.00040306965991 0  3.002270421609478 12.000590608406 0  4.002192657991259 11.99960657424602 0  5.002244291314834 11.99861439422388 0  6.001803853196875 11.99902320211631 0  7.001256112903548 11.99937468137283 0  8.000643357067966 11.99969445222223 0  9 12 0  -9 14 0  -8.001089073535177 13.99966425642041 0  -7.002180142983783 13.99931311987157 0  -6.003276675252518 13.99892984026378 0  -5.004385885260398 13.99849500645239 0  -4.004397679395577 13.99956597214999 0  -3.004404024325392 14.00065051392205 0  -2.002888917768337 14.00049519898843 0  -1.001395865927619 14.00041025564039 0  8.805047581133143e-05 14.00038524576168 0  1.001575097361518 14.00041677951561 0  2.003076662757364 14.00050657607795 0  3.004601781148833 14.00065952215774 0  4.004613896903424 13.99956751938667 0  5.004620359134559 13.99848230921761 0  6.003444275838714 13.99891676842891 0  7.002288493920173 13.99930325767642 0  8.001142331259462 13.99965906167839 0  9 14 0  -9 16 0  -8.001562199563546 15.99969502583225 0  -7.003154287580155 15.99937882802216 0  -6.004808748403603 15.99903999311671 0  -5.006563351799637 15.99866690809154 0  -4.006626048009395 15.99957929686901 0  -3.006566931261487 16.0004868237927 0  -2.004264738138635 16.00037266115446 0  -1.002054298295515 16.00030386664827 0  0.0001127689601141208 16.00027897743224 0  1.00228217959656 16.000297043663 0  2.004499657748755 16.00035813829678 0  3.006813855965392 16.000463124636 0  4.006880204652233 15.99953877478029 0  5.006822176403873 15.99861372075382 0  6.005000082550293 15.99900266304898 0  7.003280330813256 15.99935488905301 0  8.001624746122694 15.99968329913722 0  9 16 0  -9 18 0  -8.00191457286882 17.99977071873444 0  -7.003876797121251 17.99953520254081 0  -6.005936803662554 17.99928733632256 0  -5.008149650723216 17.99902126824785 0  -4.008244018501038 17.99958215708699 0  -3.008153136017786 18.00014231621872 0  -2.00527731110484 18.00006940115276 0  -1.002541002379057 18.00002263312795 0  0.0001280499786618859 18.0000016553309 0  1.002798599705749 18.00000594512065 0  2.005539302296959 18.00003485236829 0  3.008422079304805 18.00008746277432 0  4.008518303859086 17.99951737821427 0  5.008426674233713 17.99894897631487 0  6.006142630838109 17.99923570910152 0  7.004013055965724 17.99950196032945 0  8.001982410246873 17.99975443754628 0  9 18 0  -9 20 0  -8.002075233028499 19.99987133219307 0  -7.004205985473473 19.99974100506124 0  -6.006449891659375 19.99960755015845 0  -5.008868813154157 19.99946987272388 0  -4.008976296962081 19.99958202301562 0  -3.008870220454822 19.99969335402409 0  -2.005736064241459 19.99966210103236 0  -1.002760695571204 19.99963880551449 0  0.0001372618374994114 19.99962382833777 0  1.003036242263303 19.99961692335298 0  2.006014644268542 19.99961725886731 0  3.009153748046867 19.99962336602551 0  4.009261956842968 19.99950676502283 0  5.00915519421944 19.99939129836484 0  6.00666331009948 19.9995507604505 0  7.004347605142949 19.99970416387879 0  8.002145843542909 19.99985321683276 0  8.999999999992394 19.9999999999934 0  -9 22 0  -8.002012792569406 21.99997856123318 0  -7.004080381303318 21.99995931288949 0  -6.00625927357274 21.99994465692086 0  -5.008609382238395 21.9999374223782 0  -4.008714498859714 21.9995776447737 0  -3.008610338355443 21.99921693931827 0  -2.005563964814629 21.99922315071375 0  -1.002672767648637 21.99922190201456 0  0.000142379372153989 21.99921391030931 0  1.002958215290742 21.99919912175931 0  2.005851460374203 21.99917672637513 0  3.008901187082948 21.99914514413351 0  4.009005101627316 21.99950336383717 0  5.008898732191828 21.99986220174081 0  6.006475439970013 21.99989003274771 0  7.004224075395836 21.99992374500182 0  8.002084508934072 21.99996103177733 0  9 22 0  -9 24 0  -8.001730116828854 24.00007702888114 0  -7.003507339099268 24.00015924944554 0  -6.00538009070167 24.00025206843088 0  -5.007399340345437 24.00036133717836 0  -4.00748993654057 23.99956924365956 0  -3.007401064117909 23.99877630105949 0  -2.004775329141145 23.99881387125603 0  -1.002282562118288 23.99883181082883 0  0.0001448429964717599 23.99883101843096 0  1.002572688419755 23.99881157418979 0  2.005066765434225 23.99877274317022 0  3.007694649373574 23.99871297013174 0  4.007781367623168 23.9995052261248 0  5.007688086417982 24.00029780672478 0  6.005596185573856 24.00020575194315 0  7.003651167017052 24.0001290061535 0  8.001801951900173 24.00006209799721 0  9 24 0  -9 26 0  -8.001257819862117 26.00015475095733 0  -7.002549817065021 26.00031680422929 0  -6.003911100035799 26.00049367842447 0  -5.005378450398564 26.00069334073836 0  -4.005445297297337 25.99955736045085 0  -3.005381743604766 25.9984207124944 0  -2.003458836524718 25.99848273652988 0  -1.001632728646564 25.99851626947298 0  0.0001457174797556087 25.99852235102514 0  1.001924416121857 25.99850118028437 0  2.003751271352679 25.99845211654675 0  3.005675392584172 25.9983736767781 0  4.005735422339138 25.99951057174637 0  5.005664856619388 26.00064757920334 0  6.004125755749532 26.00046023241463 0  7.002692835162732 26.00029492358992 0  8.001329294640131 26.00014393543892 0  9 26 0  -9 28 0  -8.000647425563763 28.00020328823533 0  -7.001312619960133 28.00041508970865 0  -6.002013882387062 28.00064413603898 0  -5.002770311645194 28.00089960254462 0  -4.002807104594239 27.99954309520623 0  -3.002775426145545 27.99818622766943 0  -2.001759080039325 27.9982651691384 0  -1.000794029295787 27.99831013086462 0  0.0001457570359305645 27.99832228212831 0  1.001085664543101 27.99830193729073 0  2.002051065739256 27.99824855584819 0  3.003067953070048 27.99816074146367 0  4.00309527815539 27.99951817697532 0  5.003054156531862 28.00087564207477 0  6.002226849856061 28.0006265863849 0  7.001454625435318 28.00040358971371 0  8.000718430367
[...]
<PointData  Vectors="f_42"> 
<DataArray  type="Float64"  Name="f_42"  NumberOfComponents="3" format="ascii">0.0000000000000000e+00 0.0000000000000000e+00 0.0000000000000000e+00  0.0000000000000000e+00 0.0000000000000000e+00 0.0000000000000000e+00  0.0000000000000000e+00 0.0000000000000000e+00 0.0000000000000000e+00  0.0000000000000000e+00 0.0000000000000000e+00 0.0000000000000000e+00  0.0000000000000000e+00 0.0000000000000000e+00 0.0000000000000000e+00  0.0000000000000000e+00 0.0000000000000000e+00 0.0000000000000000e+00  0.0000000000000000e+00 0.0000000000000000e+00 0.0000000000000000e+00  0.0000000000000000e+00 0.0000000000000000e+00 0.0000000000000000e+00  0.0000000000000000e+00 0.0000000000000000e+00 0.0000000000000000e+00  0.0000000000000000e+00 0.0000000000000000e+00 0.0000000000000000e+00  0.0000000000000000e+00 0.0000000000000000e+00 0.0000000000000000e+00  0.0000000000000000e+00 0.0000000000000000e+00 0.0000000000000000e+00  0.0000000000000000e+00 0.0000000000000000e+00 0.0000000000000000e+00  0.0000000000000000e+00 0.0000000000000000e+00 0.0000000000000000e+00  0.0000000000000000e+00 0.0000000000000000e+00 0.0000000000000000e+00  0.0000000000000000e+00 0.0000000000000000e+00 0.0000000000000000e+00  0.0000000000000000e+00 0.0000000000000000e+00 0.0000000000000000e+00  0.0000000000000000e+00 0.0000000000000000e+00 0.0000000000000000e+00  0.0000000000000000e+00 0.0000000000000000e+00 0.0000000000000000e+00  0.0000000000000000e+00 0.0000000000000000e+00 0.0000000000000000e+00  -7.9260974830694835e-06 -1.1728900533115880e-05 0.0000000000000000e+00  -1.6636566840810121e-05 -2.2035611666824231e-05 0.0000000000000000e+00  -2.7949521555638775e-05 -2.9768163920474962e-05 0.0000000000000000e+00  -4.5999287839111851e-05 -3.4430266800481502e-05 0.0000000000000000e+00  -2.7520375470589239e-05 -2.5657962641527826e-05 0.0000000000000000e+00  -8.4597895997684291e-06 -1.7464902396397343e-05 0.0000000000000000e+00  9.2935165022242153e-07 -9.8307115772975556e-06 0.0000000000000000e+00  2.6911298382622846e-06 -3.8006103016884960e-06 0.0000000000000000e+00  -3.0962466515468979e-07 -1.1529663924129983e-06 0.0000000000000000e+00  -3.6574692760822720e-06 -2.9670960562939598e-06 0.0000000000000000e+00  -3.0680740224119163e-06 -8.8022008765465992e-06 0.0000000000000000e+00  4.3419880702872156e-06 -1.5966475542242316e-05 0.0000000000000000e+00  1.9473564597495328e-05 -2.3642093951917899e-05 0.0000000000000000e+00  4.1331279569223018e-05 -2.6786271357301691e-05 0.0000000000000000e+00  2.4941842655106026e-05 -2.5608044861802572e-05 0.0000000000000000e+00  1.4823901963210822e-05 -1.9728139260451266e-05 0.0000000000000000e+00  7.0733783645843500e-06 -1.0672483904219055e-05 0.0000000000000000e+00  0.0000000000000000e+00 0.0000000000000000e+00 0.0000000000000000e+00  0.0000000000000000e+00 0.0000000000000000e+00 0.0000000000000000e+00  -1.2714518460340525e-05 -2.9145777848758992e-05 0.0000000000000000e+00  -2.2863220410181264e-05 -5.4367275078927223e-05 0.0000000000000000e+00  -2.8951694271688914e-05 -7.1817809023132294e-05 0.0000000000000000e+00  -3.1300780774153605e-05 -7.7823043294607134e-05 0.0000000000000000e+00  -4.5364674026086396e-06 -7.3778515962362161e-05 0.0000000000000000e+00  1.3524200318771803e-05 -5.0894431359238453e-05 0.0000000000000000e+00  1.8470822645252365e-05 -2.1114100803091065e-05 0.0000000000000000e+00  1.2036518625708259e-05 2.8294791138333912e-06 0.0000000000000000e+00  -6.0336044357528084e-07 1.2495751808979649e-05 0.0000000000000000e+00  -1.3522821587727966e-05 5.0035736457970587e-06 0.0000000000000000e+00  -2.0898367520288297e-05 -1.5290529255496397e-05 0.0000000000000000e+00  -1.6907612855939780e-05 -4.2771331136561559e-05 0.0000000000000000e+00  2.0777463633910233e-07 -7.0388243960087487e-05 0.0000000000000000e+00  2.6161165138268337e-05 -7.9594976539406587e-05 0.0000000000000000e+00  2.4797497867448989e-05 -7.0022292726861469e-05 0.0000000000000000e+00  2.0177916224616376e-05 -5.2158441062299386e-05 0.0000000000000000e+00  1.1437842611439478e-05 -2.7811414314903659e-05 0.0000000000000000e+00  0.0000000000000000e+00 0.0000000000000000e+00 0.0000000000000000e+00  0.0000000000000000e+00 0.0000000000000000e+00 0.0000000000000000e+00  -2.7765240051985443e-05 -6.2255988349464695e-05 0.0000000000000000e+00  -4.5330724967496830e-05 -1.1777929473163773e-04 0.0000000000000000e+00  -4.4911458385361614e-05 -1.5964530309895046e-04 0.0000000000000000e+00  -2.4270718226194023e-05 -1.8120789083376197e-04 0.0000000000000000e+00  2.7711385014287968e-05 -1.4735570452374371e-04 0.0000000000000000e+00  5.1496244774667003e-05 -7.6657603142666665e-05 0.0000000000000000e+00  4.2493394514007157e-05 -2.5602296753544852e-06 0.0000000000000000e+00  1.9621508598735773e-05 3.8647960679617790e-05 0.0000000000000000e+00  -3.5250191500689827e-06 4.6955354287384762e-05 0.0000000000000000e+00  -2.4288736917608320e-05 3.3629883536384340e-05 0.0000000000000000e+00  -4.0019994496562091e-05 -3.2387947826205581e-06 0.0000000000000000e+00  -4.5731792393647781e-05 -6.5509302526666179e-05 0.0000000000000000e+00  -3.3246616672884110e-05 -1.3005908835243740e-04 0.0000000000000000e+00  1.1088716419995220e-05 -1.6196224827470890e-04 0.0000000000000000e+00  3.7676787018209822e-05 -1.4759798787395591e-04 0.0000000000000000e+00  4.2012887943653010e-05 -1.1051772724217769e-04 0.0000000000000000e+00  2.6591882821335810e-05 -5.8804354219483411e-05 0.0000000000000000e+00  0.0000000000000000e+00 0.0000000000000000e+00 0.0000000000000000e+00  0.0000000000000000e+00 0.0000000000000000e+00 0.0000000000000000e+00  -8.3604011396683762e-05 -1.2227953470824113e-04 0.0000000000000000e+00  -1.3973067279053007e-04 -2.3580180901924212e-04 0.0000000000000000e+00  -1.4175336051291720e-04 -3.2866804399044454e-04 0.0000000000000000e+00  -6.6852293560997982e-05 -3.8125479496037512e-04 0.0000000000000000e+00  3.3391470517897755e-05 -2.2511381086381155e-04 0.0000000000000000e+00  1.5205652687271240e-05 -4.1678050509272935e-05 0.0000000000000000e+00  -2.2103940732206264e-05 4.7741447074633102e-05 0.0000000000000000e+00  -2.5058885947305840e-05 5.7991112686904574e-05 0.0000000000000000e+00  -2.4733732040638867e-06 6.0978101275546487e-05 0.0000000000000000e+00  1.4507828746393185e-05 6.9927390845438665e-05 0.0000000000000000e+00  7.8773864192608092e-06 3.2639957920297274e-05 0.0000000000000000e+00  -3.5297712705991139e-05 -3.0910686076140663e-05 0.0000000000000000e+00  -4.9623636193700777e-05 -1.8817400975233733e-04 0.0000000000000000e+00  4.8894842668452150e-05 -3.6560741725949280e-04 0.0000000000000000e+00  1.3955071848417491e-04 -3.1601200669742181e-04 0.0000000000000000e+00  1.4286105420240628e-04 -2.2738980550939542e-04 0.0000000000000000e+00  8.6416346827768227e-05 -1.1814633707454971e-04 0.0000000000000000e+00  0.0000000000000000e+00 0.0000000000000000e+00 0.0000000000000000e+00  0.0000000000000000e+00 0.0000000000000000e+00 0.0000000000000000e+00  -2.4926473946197594e-04 -2.1726160666225258e-04 0.0000000000000000e+00  -4.5045287978971596e-04 -4.3633943619289403e-04 0.0000000000000000e+00  -5.4620089001548573e-04 -6.5862878203436117e-04 0.0000000000000000e+00  -4.5657236518630413e-04 -8.8452086182099572e-04 0.0000000000000000e+00  -2.9791029134152661e-04 -3.8094255576789628e-04 0.0000000000000000e+00  -3.2339061848224611e-04 5.2063020800776418e-05 0.0000000000000000e+00  -2.5850954584135907e-04 -2.2314543000642646e-05 0.0000000000000000e+00  -1.1878750825162490e-04 -4.6184284179193290e-05 0.0000000000000000e+00  -1.5767367221765644e-05 -5.2007901851555680e-05 0.0000000000000000e+00  8.6419430256608079e-05 -5.1574378949300966e-05 0.0000000000000000e+00  2.2229113798709221e-04 -5.4337629151370370e-05 0.0000000000000000e+00  3.4223037805203082e-04 1.0101801699495701e-04 0.0000000000000000e+00  3.2774291399186462e-04 -3.0947076790199216e-04 0.0000000000000000e+00  5.0785697412245923e-04 -8.5102019022594358e-04 0.0000000000000000e+00  5.9061967332518480e-04 -6.4038874129886906e-04 0.0000000000000000e+00  4.8261133516157225e-04 -4.2666616647155754e-04 0.0000000000000000e+00  2.6605007157803944e-04 -2.1304853434864755e-04 0.0000000000000000e+00  0.0000000000000000e+00 0.0000000000000000e+00 0.0000000000000000e+00  0.0000000000000000e+00 0.0000000000000000e+00 0.0000000000000000e+00  -6.0682737555391413e-04 -3.0482853564876009e-04 0.0000000000000000e+00  -1.1822754015194882e-03 -6.2377764227591664e-04 0.0000000000000000e+00  -1.6908785160978943e-03 -9.7373730609568647e-04 0.0000000000000000e+00  -2.0886312069165764e-03 -1.3782613638069676e-03 0.0000000000000000e+00  -2.0078503978610751e-03 -4.6097819998267280e-04 0.0000000000000000e+00  -2.0809163541612493e-03 4.4712205553026338e-04 0.0000000000000000e+00  -1.4278242393568231e-03 3.3716479608275531e-04 0.0000000000000000e+00  -7.0218099228004042e-04 2.7764728218432848e-04 0.0000000000000000e+00  5.0862939024787976e-05 2.6600481471682219e-04 0.0000000000000000e+00  8.1131741468306044e-04 3.0411898243927330e-04 0.0000000000000000e+00  1.5623581909088504e-03 4.0306965990889287e-04 0.0000000000000000e+00  2.2704216094778557e-03 5.9060840599604587e-04 0.0000000000000000e+00  2.1926579912608666e-03 -3.9342575396682331e-04 0.0000000000000000e+00  2.2442913148280285e-03 -1.3856057761067308e-03 0.0000000000000000e+00  1.8038531968739631e-03 -9.7679788369025179e-04 0.0000000000000000e+00  1.2561129035535226e-03 -6.2531862717468180e-04 0.0000000000000000e+00  6.4335706797082808e-04 -3.0554777776955973e-04 0.0000000000000000e+00  0.0000000000000000e+00 0.0000000000000000e+00 0.0000000000000000e+00  0.0000000000000000e+00 0.0000000000000000e+00 0.0000000000000000e+00  -1.0890735351833348e-03 -3.3574357958921712e-04 0.0000000000000000e+00  -2.1801429837838763e-03 -6.8688012843317442e-04 0.0000000000000000e+00  -3.2766752525220525e-03 -1.0701597362223290e-03 0.0000000000000000e+00  -4.3858852604021052e-03 -1.5049935476054912e-03 0.0000000000000000e+00  -4.3976793955778932e-03 -4.3402784999768771e-04 0.0000000000000000e+00  -4.4040243253894475e-03 6.5051392205472947e-04 0.0000000000000000e+00  -2.8889177683370745e-03 4.9519898841921439e-04 0.0000000000000000e+00  -1.3958659276174178e-03 4.1025564038513722e-04 0.0000000000000000e+00  8.8050475811331428e-05 3.8524576167516157e-04 0.0000000000000000e+00  1.5750973615169723e-03 4.1677951561514849e-04 0.0000000000000000e+00  3.0766627573654230e-03 5.0657607794641040e-04 0.0000000000000000e+00  4.6017811488337284e-03 6.5952215773681586e-04 0.0000000000000000e+00  4.6138969034200386e-03 -4.3248061333798062e-04 0.0000000000000000e+00  4.6203591345603005e-03 -1.5176907823873879e-03 0.0000000000000000e+00  3.4442758387103227e-03 -1.0832315710890736e-03 0.0000000000000000e+00  2.2884939201729413e-03 -6.9674232358615123e-04 0.0000000000000000e+00  1.1423312594614993e-03 -3.4093832160969021e-04 0.0000000000000000e+00  0.0000000000000000e+00 0.0000000000000000e+00 0.0000000000000000e+00  0.0000000000000000e+00 0.0000000000000000e+00 0.0000000000000000e+00  -1.5621995635398912e-03 -3.0497416775987669e-04 0.0000000000000000e+00  -3.1542875801547810e-03 -6.2117197783713636e-04 0.0000000000000000e+00  -4.8087484035999103e-03 -9.6000688328431343e-04 0.0000000000000000e+00  -6.5633517996369559e-03 -1.3330919084724180e-03 0.0000000000000000e+00  -6.6260480093917919e-03 -4.2070313098452555e-04 0.0000000000000000e+00  -6.5669312614872770e-03 4.8682379269550835e-04 0.0000000000000000e+00  -4.2647381386330466e-03 3.7266115447264441e-04 0.0000000000000000e+00  -2.0542982955145143e-03 3.0386664826528625e-04 0.0000000000000000e+00  1.1276896011412080e-04 2.7897743224852703e-04 0.0000000000000000e+00  2.2821795965603251e-03 2.9704366299472155e-04 0.0000000000000000e+00  4.4996577487535589e-03 3.5813829678063352e-04 0.0000000000000000e+00  6.8138559653958073e-03 4.6312463598292218e-04 0.0000000000000000e+00  6.8802046522313080e-03 -4.6122521969303601e-04 0.0000000000000000e+00  6.8221764038773587e-03 -1.3862792461903774e-03 0.0000000000000000e+00  5.0000825502980028e-03 -9.9733695102444554e-04 0.0000000000000000e+00  3.2803308132559289e-03 -6.4511094699319497e-04 0.0000000000000000e+00  1.6247461226961862e-03 -3.1670086277440877e-04 0.0000000000000000e+00  0.0000000000000000e+00 0.0000000000000000e+00 0.0000000000000000e+00  0.0000000000000000e+00 0.0000000000000000e+00 0.0000000000000000e+00  -1.9145728688054425e-03 -2.2928126553761809e-04 0.0000000000000000e+00  -3.8767971212506510e-03 -4.6479745918378613e-04 0.0000000000000000e+00  -5.9368036625525077e-03 -7.1266367744703596e-04 0.0000000000000000e+00  -8.1496507232195620e-03 -9.7873175215642226e-04 0.0000000000000000e+00  -8.2440185010370457e-03 -4.1784291300848303e-04 0.0000000000000000e+00  -8.1531360177863003e-03 1.4231621872833020e-04 0.0000000000000000e+00  -5.2773111048390027e-03 6.9401152766653597e-05 0.0000000000000000e+00  -2.5410023790591136e-03 2.2633127943037975e-05 0.0000000000000000e+00  1.2804997866188589e-04 1.6553308851678906e-06 0.0000000000000000e+00  2.7985997057484169e-03 5.9451206511849222e-06 0.0000000000000000e+00  5.5393022969558812e-03 3.4852368289163310e-05 0.0000000000000000e+00  8.4220793048042988e-03 8.7462774294284055e-05 0.0000000000000000e+00  8.5183038590852609e-03 -4.8262178572571054e-04 0.0000000000000000e+00  8.4266742337140779e-03 -1.0510236851426569e-03 0.0000000000000000e+00  6.1426308381064025e-03 -7.6429089849122450e-04 0.0000000000000000e+00  4.0130559657293105e-03 -4.9803967054147687e-04 0.0000000000000000e+00  1.9824102468698986e-03 -2.4556245371620800e-04 0.0000000000000000e+00  0.0000000000000000e+00 0.0000000000000000e+00 0.0000000000000000e+00  0.0000000000000000e+00 0.0000000000000000e+00 0.0000000000000000e+00  -2.0752330284915712e-03 -1.2866780692817481e-04 0.0000000000000000e+00  -4.2059854734712195e-03 -2.5899493875794559e-04 0.0000000000000000e+00  -6.4498916593773983e-03 -3.9244984152242115e-04 0.0000000000000000e+00  -8.8688131541566836e-03 -5.3012727611132437e-04 0.0000000000000000e+00  -8.9762969620789165e-03 -4.1797698437893337e-04 0.0000000000000000e+00  -8.8702204548226880e-03 -3.0664597591597892e-04 0.0000000000000000e+00  -5.7360642414581607e-03 -3.3789896762903240e-04 0.0000000000000000e+00  -2.7606955712050152e-03 -3.6119448550293604e-04 0.0000000000000000e+00  1.3726183749941139e-04 -3.7617166221382134e-04 0.0000000000000000e+00  3.0362422633036235e-03 -3.8307664702537110e-04 0.0000000000000000e+00  6.0146442685466671e-03 -3.8274113270036933e-04 0.0000000000000000e+00  9.1537480468677403e-03 -3.7663397451035563e-04 0.0000000000000000e+00  9.2619568429698988e-03 -4.9323497718682728e-04 0.0000000000000000e+00  9.1551942194406221e-03 -6.0870163515191827e-04 0.0000000000000000e+00  6.6633100994786046e-03 -4.4923954950812253e-04 0.0000000000000000e+00  4.3476051429476451e-03 -2.9583612121672866e-04 0.0000000000000000e+00  2.1458435428910534e-03 -1.4678316724929812e-04 0.0000000000000000e+00  -7.6102781763582418e-12 -6.5946186798380934e-12 0.0000000000000000e+00  0.0000000000000000e+00 0.0000000000000000e+00 0.0000000000000000e+00  -2.0127925694023163e-03 -2.1438766819944911e-05 0.0000000000000000e+00  -4.0803813033211730e-03 -4.0687110524195670e-05 0.0000000000000000e+00  -6.2592735727395529e-03 -5.5343079126773447e-05 0.0000000000000000e+00  -8.6093822383922977e-03 -6.2577621799906358e-05 0.0000000000000000e+00  -8.7144988597150190e-03 -4.2235522627257714e-04 0.0000000000000000e+00  -8.6103383554454373e-03 -7.8306068171788822e-04 0.0000000000000000e+00  -5.5639648146265644e-03 -7.7684928622592634e-04 0.0000000000000000e+00  -2.6727676486376483e-03 -7.7809798543040422e-04 0.0000000000000000e+00  1.4237937215398901e-04 -7.8608969070813469e-04 0.0000000000000000e+00  2.9582152907424112e-03 -8.0087824070594420e-04 0.0000000000000000e+00  5.8514603742013550e-03 -8.2327362488685365e-04 0.0000000000000000e+00  8.9011870829478878e-03 -8.5485586649761396e-04 0.0000000000000000e+00  9.0051016273199249e-03 -4.9663616280472343e-04 0.0000000000000000e+00  8.8987321918285404e-03 -1.3779825920336541e-04 0.0000000000000000e+00  6.4754399700118022e-03 -1.0996725228137751e-04 0.0000000000000000e+00  4.2240753958326313e-03 -7.6254998160299144e-05 0.0000000000000000e+00  2.0845089340667381e-03 -3.8968222661651483e-05 0.0000000000000000e+00  0.0000000000000000e+00 0.0000000000000000e+00 0.0000000000000000e+00  0.0000000000000000e+00 0.0000000000000000e+00 0.0000000000000000e+00  -1.7301168288459891e-03 7.7028881135994472e-05 0.0000000000000000e+00  -3.5073390992702469e-03 1.5924944554386217e-04 0.0000000000000000e+00  -5.3800907016751300e-03 2.5206843088665517e-04 0.0000000000000000e+00  -7.3993403454312235e-03 3.6133717835558100e-04 0.0000000000000000e+00  -7.4899365405705310e-03 -4.3075634042479693e-04 0.0000000000000000e+00  -7.4010641179070571e-03 -1.2236989405125902e-03 0.0000000000000000e+00  -4.7753291411421076e-03 -1.1861287439733886e-03 0.0000000000000000e+00  -2.2825621182880973e-03 -1.1681891711733477e-03 0.0000000000000000e+00  1.4484299647175993e-04 -1.1689815690428982e-03 0.0000000000000000e+00  2.5726884197543112e-03 -1.1884258102099945e-03 0.0000000000000000e+00  5.0667654342273867e-03 -1.2272568297605247e-03 0.0000000000000000e+00  7.6946493735734834e-03 -1.2870298682545222e-03 0.0000000000000000e+00  7.7813676231637454e-03 -4.9477387519798754e-04 0.0000000000000000e+00  7.6880864179802643e-03 2.9780672477357890e-04 0.0000000000000000e+00  5.5961855738573619e-03 2.0575194316429962e-04 0.0000000000000000e+00  3.6511670170525741e-03 1.2900615350155511e-04 0.0000000000000000e+00  1.8019519001768369e-03 6.2097997231504729e-05 0.0000000000000000e+00  0.0000000000000000e+00 0.0000000000000000e+00 0.0000000000000000e+00  0.0000000000000000e+00 0.0000000000000000e+00 0.0000000000000000e+00  -1.2578198621169560e-03 1.5475095732184660e-04 0.0000000000000000e+00  -2.5498170650236989e-03 3.1680422930368006e-04 0.0000000000000000e+00  -3.9111000357988307e-03 4.9367842444866664e-04 0.0000000000000000e+00  -5.3784503985600312e-03 6.9334073836131130e-04 0.0000000000000000e+00  -5.4452972973367750e-03 -4.4263954913583521e-04 0.0000000000000000e+00  -5.3817436047625955e-03 -1.5792875055957061e-03 0.0000000000000000e+00  -3.4588365247186889e-03 -1.5172634701156055e-03 0.0000000000000000e+00  -1.6327286465636112e-03 -1.4837305270034610e-03 0.0000000000000000e+00  1.4571747975560865e-04 -1.4776489748576404e-03 0.0000000000000000e+00  1.9244161218573907e-03 -1.4988197156056396e-03 0.0000000000000000e+00  3.7512713526791732e-03 -1.5478834532754856e-03 0.0000000000000000e+00  5.6753925841712318e-03 -1.6263232219074740e-03 0.0000000000000000e+00  5.7354223391372292e-03 -4.8942825362953499e-04 0.0000000000000000e+00  5.6648566193854000e-03 6.4757920335026177e-04 0.0000000000000000e+00  4.1257557495338422e-03 4.6023241461845988e-04 0.0000000000000000e+00  2.6928351627315810e-03 2.9492358992864933e-04 0.0000000000000000e+00  1.3292946401304911e-03 1.4393543894531500e-04 0.0000000000000000e+00  0.0000000000000000e+00 0.0000000000000000e+00 0.0000000000000000e+00  0.0000000000000000e+00 0.0000000000000000e+00 0.0000000000000000e+00  -6.4742556375845840e-04 2.0328823534629834e-04 0.0000000000000000e+00  -1.3126199601328473e-03 4.1508970863979002e-04 0.0000000000000000e+00  -2.0138823870638396e-03 6.4413603897639927e-04 0.0000000000000000e+00  -2.7703116451948747e-03 8.9960254462322163e-04 0.0000000000000000e+00  -2.8071045942425752e-03 -4.5690479378533418e-04 0.0000000000000000e+00  -2.7754261455430651e-03 -1.8137723305950136e-03 0.0000000000000000e+00  -1.7590800393254330e-03 -1.7348308616160709e-03 0.0000000000000000e+00  -7.9402929578716714e-04 -1.6898691353915141e-03 0.0000000000000000e+00  1.4575703593056453e-04 -1.6777178717015393e-03 0.0000000000000000e+00  1.0856645431017748e-03 -1.6980627092494805e-03 0.0000000000000000e+00  2.0510657392566974e-03 -1.7514441518107636e-03 0.0000000000000000e+00  3.0679530700521056e-03 -1.8392585363426331e-03 0.0000000000000000e+00  3.0952781553877963e-03 -4.8182302468590169e-04 0.0000000000000000e+00  