<?xml version="1.0"?>
<VTKFile type="UnstructuredGrid"  version="0.1"  >
<UnstructuredGrid>
<Piece  NumberOfPoints="589" NumberOfCells="1080">
<Points>
<DataArray  type="Float64"  NumberOfComponents="3"  format="ascii">-9 0 0  -8 0 0  -7 0 0  -6 0 0  -5 0 0  -4 0 0  -3 0 0  -2 0 0  -1 0 0  0 0 0  1 0 0  2 0 0  3 0 0  4 0 0  5 0 0  6 0 0  7 0 0  8 0 0  9 0 0  -9 2 0  -8.000008256420289 1.999987693609944 0  -7.000017334981012 1.999976886252986 0  -6.000029144141351 1.999968792942678 0  -5.000048025810896 1.9999639395173 0  -4.000028649439804 1.999973098172958 0  -3.000008664659099 1.99998169138389 0  -1.999998837257505 1.999989714761241 0  -0.99999703074414 1.999996051222009 0  -2.294721510307116e-07 1.999998825493517 0  0.9999962187721475 1.999996895744702 0  1.999996832610027 1.999990722048032 0  3.000004657271408 1.999983137924126 0  4.000020655079407 1.999974991605986 0  5.000043792635902 1.999971584063735 0  6.000026465753918 1.999972866068976 0  7.000015745381676 1.999979108915251 0  8.00000751685662 1.999988701746598 0  9 2 0  -9 4 0  -8.000013224074863 3.999969391948861 0  -7.000023747599366 3.99994291696223 0  -6.000029998134426 3.999924626694094 0  -5.000032315638221 3.999918391858611 0  -4.000004193060486 3.9999225913517 0  -2.999985228302077 3.999946643211546 0  -1.999980071412701 3.999977962043988 0  -0.999986897849803 4.000003142807543 0  -2.550477630831911e-07 4.000013286210812 0  0.9999861016765439 4.000005338684764 0  1.999978315836572 3.999983881538245 0  2.999982534351015 3.999954822328893 0  4.000000618456099 3.999925577791992 0  5.00002804307507 3.999915693743922 0  6.000026505237334 3.999925889353397 0  7.0000215231233 3.999944818830003 0  8.00001218666193 3.999970582778536 0  9 4 0  -9 6 0  -8.000028992869826 5.999934562225788 0  -7.000047252110017 5.99987621267255 0  -6.000046584289358 5.999832242433456 0  -5.000024632897246 5.999809652475514 0  -3.999969930125354 5.999845224900192 0  -2.999944911900814 5.999919606087917 0  -1.999954407193441 5.999997583397703 0  -0.9999785161551458 6.00004095895273 0  -2.93389658925041e-06 6.000049676977168 0  0.9999751395677405 6.000035582421548 0  1.99995851247356 5.999996624802923 0  2.999952469493608 5.999930823853616 0  3.999965646964848 5.99986257539378 0  5.00001244161677 5.999828738339297 0  6.00004032180362 5.999843980768546 0  7.000044717119985 5.999883195011141 0  8.000028255584867 5.999937854679479 0  9 6 0  -9 8 0  -8.000087684425145 7.999871398902911 0  -7.000146457577078 7.999752011871704 0  -6.000148300519436 7.999654357527964 0  -5.000069191444604 7.999599081706902 0  -3.999963676288051 7.999763361460229 0  -2.999982754240664 7.999956389572054 0  -2.00002197529446 8.000050531529189 0  -1.000025067382923 8.000061382266503 0  -1.299016004762309e-06 8.000064557185988 0  1.000016531719367 8.000074002206929 0  2.000009461085619 8.000034584469907 0  2.999963833940492 7.999967420932431 0  3.999948645922037 7.999801290593195 0  5.000052600157169 7.999613844547237 0  6.000148063115413 7.999666213561452 0  7.000151321522805 7.999759811430525 0  8.000091486077245 7.999875200595639 0  9 8 0  -9 10 0  -8.000261924123871 9.999771457508505 0  -7.000473278844153 9.999541000912751 0  -6.000573725467971 9.999307158135073 0  -5.000479170896153 9.999069514278919 0  -4.000312208121373 9.999599290229561 0  -3.000338898613238 10.00005484210331 0  -2.000270540755721 9.999976759698693 0  -1.000123473531517 9.999951696936595 0  -1.496448232837862e-05 9.999945576161979 0  1.000092726184725 9.99994601016706 0  2.00023601884549 9.999943015514638 0  3.000362387738946 10.00010695058574 0  4.000346936634106 9.999673397087264 0  5.000537137282413 9.999101398343111 0  6.000624413921781 9.999323692171046 0  7.000510169563738 9.999549352879677 0  8.000281232746737 9.999774962819133 0  9 10 0  -9 12 0  -8.000637993100657 11.99967933907516 0  -7.001243000589509 11.9993438155132 0  -6.001777741486266 11.99897565271679 0  -5.002195942184875 11.99855006421918 0  -4.002110995418509 11.99951486885848 0  -3.002187756245044 12.00046997501006 0  -2.001498732718252 12.000354656736 0  -1.000733559131697 12.00029244754028 0  6.026831145441016e-05 12.00028066462068 0  1.000861685291472 12.00032132146548 0  2.001652900598914 12.00042613346946 0  3.002398387458234 12.00062440875447 0  4.00231603464017 11.99958472827853 0  5.002370701278321 11.99853639832477 0  6.001905821823667 11.99896807442741 0  7.001327273125124 11.99933932553328 0  8.000679848055736 11.99967715753736 0  9 12 0  -9 14 0  -8.001145080611728 13.99964685910599 0  -7.002292309856816 13.99927751227155 0  -6.003445388719188 13.998874325023 0  -5.004611954524487 13.99841686121609 0  -4.004624468136851 13.99954291927462 0  -3.004631006995721 14.00068323397363 0  -2.003033270172629 14.00052046552738 0  -1.00145901982579 14.00043180037305 0  0.0001053732912247098 14.00040627744884 0  1.001672824752906 14.00044036148499 0  2.003255294551133 14.00053590211142 0  3.004862228872032 14.00069808807859 0  4.004874701065661 13.99954334637555 0  5.004881701967107 13.99839574375748 0  6.003639650712165 13.99885489527251 0  7.002418560445002 13.99926341637185 0  8.001207330637847 13.99963955246759 0  9 14 0  -9 16 0  -8.001642314886494 15.99967932757591 0  -7.003316147248647 15.99934683486008 0  -6.005055750309158 15.99899050096514 0  -5.006900936501811 15.99859809202694 0  -4.006967041032286 15.99955667869529 0  -3.006904655512089 16.0005101390027 0  -2.004477129978526 16.00039087681504 0  -1.002146477314496 16.00031940291317 0  0.0001383126696046899 16.00029420248193 0  1.002425431939273 16.00031430434868 0  2.004763070913129 16.00037981801647 0  3.007202499695239 16.0004916884304 0  4.007272268123687 15.99951285804582 0  5.007211170145334 15.99853327245401 0  6.005285824252045 15.99894474016515 0  7.003468094878784 15.99931739904193 0  8.001717836532519 15.99966488702215 0  9 16 0  -9 18 0  -8.002012151780921 17.99975910938813 0  -7.004074526534135 17.99951165226378 0  -6.006239959642393 17.9992511879087 0  -5.008566473358679 17.998971550106 0  -4.008665910048684 17.99955951845606 0  -3.008570050716062 18.00014670513872 0  -2.005537675746103 18.00007096883898 0  -1.002652436524873 18.00002277566606 0  0.0001618724570245583 18.00000177318071 0  1.00297775935969 18.00000743628857 0  2.005867627781593 18.00003910779783 0  3.00890732918319 18.00009585427462 0  4.009008744310461 17.99949020409835 0  5.00891212916954 17.99888631905829 0  6.006497181633328 17.99919014198425 0  7.004245011410501 17.99947226325216 0  8.00209709177545 17.99973979379929 0  9 18 0  -9 20 0  -8.002179870487042 19.99986513617158 0  -7.004418244071 19.99972852989375 0  -6.006775851894482 19.99958863962364 0  -5.009317877798464 19.99944431606948 0  -4.00943110969543 19.99955927937267 0  -3.009319253107367 19.99967335604634 0  -2.006014396390364 19.99964149848581 0  -1.002876914824367 19.99961801693637 0  0.0001790391742278248 19.99960331137634 0  1.003236210378893 19.99959714385416 0  2.006377310057788 19.99959866113655 0  3.009688098143785 19.99960634027988 0  4.009802278162169 19.99947901543571 0  5.009689607135797 19.99935286899369 0  6.007052960115352 19.99952243984206 0  7.004602172676198 19.99968553104837 0  8.002271590948336 19.99984397684084 0  8.999999999993227 19.9999999999934 0  -9 22 0  -8.002112443320506 21.99997810906253 0  -7.004282610827708 21.99995853776711 0  -6.006570030259571 21.99994382866544 0  -5.009037817917414 21.99993697434686 0  -4.009148545099775 21.99955459164407 0  -3.009038752550178 21.99917119596884 0  -2.005826396912168 21.99917872434662 0  -1.00277753221552 21.99917837451578 0  0.0001913395780843543 21.9991709182207 0  1.003161199065407 21.99915631599997 0  2.006213013414111 21.99913373274051 0  3.009430243433194 21.99910152304943 0  4.009539975695163 21.99947548145655 0  5.00942761575744 21.99985006185901 0  6.00686100867887 21.99988063897744 0  7.004475932370729 21.99991735596498 0  8.002208899397163 21.99995780163063 0  9 22 0  -9 24 0  -8.00181295336168 24.00008180427793 0  -7.003675502074371 24.00016909581593 0  -6.005638630306504 24.00026758934299 0  -5.007756006776305 24.00038346824978 0  -4.007851429311042 23.99954562858778 0  -3.007757827685462 23.99870685146791 0  -2.004989074953348 23.99874727438923 0  -1.002360317453354 23.99876698046098 0  0.000199805061584176 23.99876692986438 0  1.002760751553971 23.99874722028364 0  2.005391976790359 23.99870709084124 0  3.0081648313329 23.99864491659881 0  4.008256455147002 23.99947748925541 0  5.008157798616446 24.00031036540427 0  6.005938825618581 24.00021424618294 0  7.003875073192383 24.00013424090112 0  8.001912563275019 24.00006458935082 0  9 24 0  -9 26 0  -8.001313756076442 26.00016357452519 0  -7.002663449827893 26.00033486286118 0  -6.004086004462354 26.00052180727263 0  -5.005620104214478 26.00073282443676 0  -4.0056904913667 25.99953292418203 0  -3.005623672872812 25.99833227810878 0  -2.003596242259661 25.99839826957536 0  -1.001670589351322 25.99843419209053 0  0.0002051670954400676 25.99844115138736 0  1.002081619982407 25.99841936659276 0  2.004009358923897 25.99836817109576 0  3.00604025924016 25.99828601056545 0  4.006103719199555 25.99948311908015 0  5.006028939481602 26.00068030551229 0  6.004391686278465 26.00048339270345 0  7.002866775340713 26.00030971720756 0  8.001415271321585 26.00015114066325 0  9 26 0  -9 28 0  -8.000669263803724 28.00021451717664 0  -7.001357138304037 28.00043802258367 0  -6.002082798248684 28.00067973533341 0  -5.002866256105285 28.00094934404521 0  -4.002904948190588 27.99951764025484 0  -3.002871821686167 27.99808552276287 0  -2.001800681009643 27.99816909781438 0  -1.000783260184342 27.99821680772385 0  0.0002079383135974869 27.99822989197528 0  1.001199735324049 27.99820868721881 0  2.002218945579514 27.99815262741019 0  3.003293050323636 27.99806024278991 0  4.003321976731578 27.99949107143452 0  5.003278205155367 28.00092189622448 0  6.002390987309012 28.00065961604885 0  7.001562219508696 28.00042483124456 0  8.00077168493935 28.
[...]
<PointData  Vectors="f_42"> 
<DataArray  type="Float64"  Name="f_42"  NumberOfComponents="3" format="ascii">0.0000000000000000e+00 0.0000000000000000e+00 0.0000000000000000e+00  0.0000000000000000e+00 0.0000000000000000e+00 0.0000000000000000e+00  0.0000000000000000e+00 0.0000000000000000e+00 0.0000000000000000e+00  0.0000000000000000e+00 0.0000000000000000e+00 0.0000000000000000e+00  0.0000000000000000e+00 0.0000000000000000e+00 0.0000000000000000e+00  0.0000000000000000e+00 0.0000000000000000e+00 0.0000000000000000e+00  0.0000000000000000e+00 0.0000000000000000e+00 0.0000000000000000e+00  0.0000000000000000e+00 0.0000000000000000e+00 0.0000000000000000e+00  0.0000000000000000e+00 0.0000000000000000e+00 0.0000000000000000e+00  0.0000000000000000e+00 0.0000000000000000e+00 0.0000000000000000e+00  0.0000000000000000e+00 0.0000000000000000e+00 0.0000000000000000e+00  0.0000000000000000e+00 0.0000000000000000e+00 0.0000000000000000e+00  0.0000000000000000e+00 0.0000000000000000e+00 0.0000000000000000e+00  0.0000000000000000e+00 0.0000000000000000e+00 0.0000000000000000e+00  0.0000000000000000e+00 0.0000000000000000e+00 0.0000000000000000e+00  0.0000000000000000e+00 0.0000000000000000e+00 0.0000000000000000e+00  0.0000000000000000e+00 0.0000000000000000e+00 0.0000000000000000e+00  0.0000000000000000e+00 0.0000000000000000e+00 0.0000000000000000e+00  0.0000000000000000e+00 0.0000000000000000e+00 0.0000000000000000e+00  0.0000000000000000e+00 0.0000000000000000e+00 0.0000000000000000e+00  -8.2564202970880725e-06 -1.2306390055803332e-05 0.0000000000000000e+00  -1.7334981008505014e-05 -2.3113747013995489e-05 0.0000000000000000e+00  -2.9144141351558206e-05 -3.1207057321388678e-05 0.0000000000000000e+00  -4.8025810901300435e-05 -3.6060482701498628e-05 0.0000000000000000e+00  -2.8649439802489498e-05 -2.6901827041216668e-05 0.0000000000000000e+00  -8.6646591026925565e-06 -1.8308616109396799e-05 0.0000000000000000e+00  1.1627424969681573e-06 -1.0285238758754454e-05 0.0000000000000000e+00  2.9692558593423451e-06 -3.9487779905969009e-06 0.0000000000000000e+00  -2.2947215103071164e-07 -1.1745064837658360e-06 0.0000000000000000e+00  -3.7812278515499910e-06 -3.1042552969844976e-06 0.0000000000000000e+00  -3.1673899741794835e-06 -9.2779519665448874e-06 0.0000000000000000e+00  4.6572714103378684e-06 -1.6862075875147167e-05 0.0000000000000000e+00  2.0655079407070242e-05 -2.5008394014135590e-05 0.0000000000000000e+00  4.3792635903046268e-05 -2.8415936264560951e-05 0.0000000000000000e+00  2.6465753913488802e-05 -2.7133931024904123e-05 0.0000000000000000e+00  1.5745381674465202e-05 -2.0891084749349425e-05 0.0000000000000000e+00  7.5168566134592181e-06 -1.1298253403377550e-05 0.0000000000000000e+00  0.0000000000000000e+00 0.0000000000000000e+00 0.0000000000000000e+00  0.0000000000000000e+00 0.0000000000000000e+00 0.0000000000000000e+00  -1.3224074859389305e-05 -3.0608051139978668e-05 0.0000000000000000e+00  -2.3747599358118947e-05 -5.7083037771637884e-05 0.0000000000000000e+00  -2.9998134426139257e-05 -7.5373305909136155e-05 0.0000000000000000e+00  -3.2315638225608333e-05 -8.1608141387308337e-05 0.0000000000000000e+00  -4.1930604882897255e-06 -7.7408648300149094e-05 0.0000000000000000e+00  1.4771697922290310e-05 -5.3356788451358153e-05 0.0000000000000000e+00  1.9928587298128745e-05 -2.2037956013200586e-05 0.0000000000000000e+00  1.3102150196972816e-05 3.1428075441298282e-06 0.0000000000000000e+00  -2.5504776308319111e-07 1.3286210814675539e-05 0.0000000000000000e+00  -1.3898323456343796e-05 5.3386847700073826e-06 0.0000000000000000e+00  -2.1684163427745482e-05 -1.6118461754978513e-05 0.0000000000000000e+00  -1.7465648980893568e-05 -4.5177671106974197e-05 0.0000000000000000e+00  6.1845609511250150e-07 -7.4422208008409989e-05 0.0000000000000000e+00  2.8043075062336337e-05 -8.4306256076997418e-05 0.0000000000000000e+00  2.6505237330034942e-05 -7.4110646601596952e-05 0.0000000000000000e+00  2.1523123299560968e-05 -5.5181169996168522e-05 0.0000000000000000e+00  1.2186661942789727e-05 -2.9417221465792797e-05 0.0000000000000000e+00  0.0000000000000000e+00 0.0000000000000000e+00 0.0000000000000000e+00  0.0000000000000000e+00 0.0000000000000000e+00 0.0000000000000000e+00  -2.8992869832384678e-05 -6.5437774217400304e-05 0.0000000000000000e+00  -4.7252110015678649e-05 -1.2378732744873692e-04 0.0000000000000000e+00  -4.6584289365142023e-05 -1.6775756654322527e-04 0.0000000000000000e+00  -2.4632897244848081e-05 -1.9034752448282110e-04 0.0000000000000000e+00  3.0069874647960073e-05 -1.5477509980351255e-04 0.0000000000000000e+00  5.5088099186764987e-05 -8.0393912079182689e-05 0.0000000000000000e+00  4.5592806558918625e-05 -2.4166022996324336e-06 0.0000000000000000e+00  2.1483844854606214e-05 4.0958952730118888e-05 0.0000000000000000e+00  -2.9338965892504098e-06 4.9676977167397979e-05 0.0000000000000000e+00  -2.4860432259939644e-05 3.5582421549450165e-05 0.0000000000000000e+00  -4.1487526439412094e-05 -3.3751970813361507e-06 0.0000000000000000e+00  -4.7530506392558427e-05 -6.9176146379200187e-05 0.0000000000000000e+00  -3.4353035152173315e-05 -1.3742460621949065e-04 0.0000000000000000e+00  1.2441616771447222e-05 -1.7126166070507854e-04 0.0000000000000000e+00  4.0321803613254509e-05 -1.5601923145203641e-04 0.0000000000000000e+00  4.4717119982835386e-05 -1.1680498885933101e-04 0.0000000000000000e+00  2.8255584865212287e-05 -6.2145320520704699e-05 0.0000000000000000e+00  0.0000000000000000e+00 0.0000000000000000e+00 0.0000000000000000e+00  0.0000000000000000e+00 0.0000000000000000e+00 0.0000000000000000e+00  -8.7684425152148698e-05 -1.2860109708703668e-04 0.0000000000000000e+00  -1.4645757707899688e-04 -2.4798812829685419e-04 0.0000000000000000e+00  -1.4830051943785113e-04 -3.4564247204131550e-04 0.0000000000000000e+00  -6.9191444606042028e-05 -4.0091829308861680e-04 0.0000000000000000e+00  3.6323711948962035e-05 -2.3663853976679035e-04 0.0000000000000000e+00  1.7245759333961528e-05 -4.3610427947676425e-05 0.0000000000000000e+00  -2.1975294459675798e-05 5.0531529195642949e-05 0.0000000000000000e+00  -2.5067382923044506e-05 6.1382266509627615e-05 0.0000000000000000e+00  -1.2990160047623093e-06 6.4557185985072868e-05 0.0000000000000000e+00  1.6531719368740901e-05 7.4002206926285759e-05 0.0000000000000000e+00  9.4610856167409017e-06 3.4584469898930042e-05 0.0000000000000000e+00  -3.6166059508909538e-05 -3.2579067564717785e-05 0.0000000000000000e+00  -5.1354077963925331e-05 -1.9870940680323236e-04 0.0000000000000000e+00  5.2600157166412749e-05 -3.8615545276883415e-04 0.0000000000000000e+00  1.4806311541532404e-04 -3.3378643854772453e-04 0.0000000000000000e+00  1.5132152280405002e-04 -2.4018856948308161e-04 0.0000000000000000e+00  9.1486077240169174e-05 -1.2479940436103495e-04 0.0000000000000000e+00  0.0000000000000000e+00 0.0000000000000000e+00 0.0000000000000000e+00  0.0000000000000000e+00 0.0000000000000000e+00 0.0000000000000000e+00  -2.6192412387384935e-04 -2.2854249149318993e-04 0.0000000000000000e+00  -4.7327884415105000e-04 -4.5899908724501517e-04 0.0000000000000000e+00  -5.7372546796952454e-04 -6.9284186492334446e-04 0.0000000000000000e+00  -4.7917089615445550e-04 -9.3048572108607940e-04 0.0000000000000000e+00  -3.1220812136902542e-04 -4.0070977043491944e-04 0.0000000000000000e+00  -3.3889861324005012e-04 5.4842103303953575e-05 0.0000000000000000e+00  -2.7054075572283202e-04 -2.3240301307370267e-05 0.0000000000000000e+00  -1.2347353151743345e-04 -4.8303063404348877e-05 0.0000000000000000e+00  -1.4964482328378617e-05 -5.4423838036764309e-05 0.0000000000000000e+00  9.2726184727482937e-05 -5.3989832939823547e-05 0.0000000000000000e+00  2.3601884549162146e-04 -5.6984485372083707e-05 0.0000000000000000e+00  3.6238773894693271e-04 1.0695058574359538e-04 0.0000000000000000e+00  3.4693663411127575e-04 -3.2660291273806173e-04 0.0000000000000000e+00  5.3713728241829473e-04 -8.9860165689087466e-04 0.0000000000000000e+00  6.2441392178683814e-04 -6.7630782895564362e-04 0.0000000000000000e+00  5.1016956373543376e-04 -4.5064712032267000e-04 0.0000000000000000e+00  2.8123274673301453e-04 -2.2503718086668454e-04 0.0000000000000000e+00  0.0000000000000000e+00 0.0000000000000000e+00 0.0000000000000000e+00  0.0000000000000000e+00 0.0000000000000000e+00 0.0000000000000000e+00  -6.3799310065581387e-04 -3.2066092483329660e-04 0.0000000000000000e+00  -1.2430005895077692e-03 -6.5618448680062984e-04 0.0000000000000000e+00  -1.7777414862642324e-03 -1.0243472831919169e-03 0.0000000000000000e+00  -2.1959421848731973e-03 -1.4499357808164157e-03 0.0000000000000000e+00  -2.1109954185094832e-03 -4.8513114151787617e-04 0.0000000000000000e+00  -2.1877562450444091e-03 4.6997501006895085e-04 0.0000000000000000e+00  -1.4987327182519538e-03 3.5465673600112909e-04 0.0000000000000000e+00  -7.3355913169651410e-04 2.9244754027311367e-04 0.0000000000000000e+00  6.0268311454410161e-05 2.8066462068972474e-04 0.0000000000000000e+00  8.6168529147155235e-04 3.2132146548341376e-04 0.0000000000000000e+00  1.6529005989113766e-03 4.2613346946401891e-04 0.0000000000000000e+00  2.3983874582336239e-03 6.2440875446307764e-04 0.0000000000000000e+00  2.3160346401732276e-03 -4.1527172146326526e-04 0.0000000000000000e+00  2.3707012783129727e-03 -1.4636016752160074e-03 0.0000000000000000e+00  1.9058218236673113e-03 -1.0319255725831113e-03 0.0000000000000000e+00  1.3272731251303318e-03 -6.6067446672884056e-04 0.0000000000000000e+00  6.7984805573502503e-04 -3.2284246263549144e-04 0.0000000000000000e+00  0.0000000000000000e+00 0.0000000000000000e+00 0.0000000000000000e+00  0.0000000000000000e+00 0.0000000000000000e+00 0.0000000000000000e+00  -1.1450806117352171e-03 -3.5314089400889930e-04 0.0000000000000000e+00  -2.2923098568161577e-03 -7.2248772845140126e-04 0.0000000000000000e+00  -3.4453887191930144e-03 -1.1256749770064559e-03 0.0000000000000000e+00  -4.6119545244891653e-03 -1.5831387839114056e-03 0.0000000000000000e+00  -4.6244681368519183e-03 -4.5708072537607063e-04 0.0000000000000000e+00  -4.6310069957194531e-03 6.8323397362981706e-04 0.0000000000000000e+00  -3.0332701726284148e-03 5.2046552737082270e-04 0.0000000000000000e+00  -1.4590198257884721e-03 4.3180037304032458e-04 0.0000000000000000e+00  1.0537329122470980e-04 4.0627744883430514e-04 0.0000000000000000e+00  1.6728247529042217e-03 4.4036148499755889e-04 0.0000000000000000e+00  3.2552945511348597e-03 5.3590211142293695e-04 0.0000000000000000e+00  4.8622288720334174e-03 6.9808807858912525e-04 0.0000000000000000e+00  4.8747010656551909e-03 -4.5665362445480319e-04 0.0000000000000000e+00  4.8817019671094633e-03 -1.6042562425192825e-03 0.0000000000000000e+00  3.6396507121604802e-03 -1.1451047274911497e-03 0.0000000000000000e+00  2.4185604450034500e-03 -7.3658362815478347e-04 0.0000000000000000e+00  1.2073306378446481e-03 -3.6044753241157215e-04 0.0000000000000000e+00  0.0000000000000000e+00 0.0000000000000000e+00 0.0000000000000000e+00  0.0000000000000000e+00 0.0000000000000000e+00 0.0000000000000000e+00  -1.6423148864886700e-03 -3.2067242409817594e-04 0.0000000000000000e+00  -3.3161472486472011e-03 -6.5316513991317093e-04 0.0000000000000000e+00  -5.0557503091564785e-03 -1.0094990348560129e-03 0.0000000000000000e+00  -6.9009365018110232e-03 -1.4019079730704872e-03 0.0000000000000000e+00  -6.9670410322822092e-03 -4.4332130470649722e-04 0.0000000000000000e+00  -6.9046555120896415e-03 5.1013900270383157e-04 0.0000000000000000e+00  -4.4771299785245511e-03 3.9087681505556245e-04 0.0000000000000000e+00  -2.1464773144955341e-03 3.1940291317132197e-04 0.0000000000000000e+00  1.3831266960468989e-04 2.9420248193301566e-04 0.0000000000000000e+00  2.4254319392729463e-03 3.1430434868729416e-04 0.0000000000000000e+00  4.7630709131273223e-03 3.7981801646245193e-04 0.0000000000000000e+00  7.2024996952425322e-03 4.9168843039070831e-04 0.0000000000000000e+00  7.2722681236852584e-03 -4.8714195416471947e-04 0.0000000000000000e+00  7.2111701453398151e-03 -1.4667275459928832e-03 0.0000000000000000e+00  5.2858242520489136e-03 -1.0552598348558602e-03 0.0000000000000000e+00  3.4680948787840348e-03 -6.8260095806898157e-04 0.0000000000000000e+00  1.7178365325225644e-03 -3.3511297784541346e-04 0.0000000000000000e+00  0.0000000000000000e+00 0.0000000000000000e+00 0.0000000000000000e+00  0.0000000000000000e+00 0.0000000000000000e+00 0.0000000000000000e+00  -2.0121517809053020e-03 -2.4089061184505626e-04 0.0000000000000000e+00  -4.0745265341333037e-03 -4.8834773620719826e-04 0.0000000000000000e+00  -6.2399596423919970e-03 -7.4881209130322113e-04 0.0000000000000000e+00  -8.5664733586824204e-03 -1.0284498939979092e-03 0.0000000000000000e+00  -8.6659100486823331e-03 -4.4048154393874458e-04 0.0000000000000000e+00  -8.5700507160621706e-03 1.4670513873548050e-04 0.0000000000000000e+00  -5.5376757461022630e-03 7.0968838973502557e-05 0.0000000000000000e+00  -2.6524365248751249e-03 2.2775666064763692e-05 0.0000000000000000e+00  1.6187245702455833e-04 1.7731806974011614e-06 0.0000000000000000e+00  2.9777593596894978e-03 7.4362885651316181e-06 0.0000000000000000e+00  5.8676277815890429e-03 3.9107797823686771e-05 0.0000000000000000e+00  8.9073291831889417e-03 9.5854274596016031e-05 0.0000000000000000e+00  9.0087443104600543e-03 -5.0979590165773291e-04 0.0000000000000000e+00  8.9121291695410561e-03 -1.1136809417262490e-03 0.0000000000000000e+00  6.4971816333283172e-03 -8.0985801577401436e-04 0.0000000000000000e+00  4.2450114105073754e-03 -5.2773674782862455e-04 0.0000000000000000e+00  2.0970917754471320e-03 -2.6020620070560483e-04 0.0000000000000000e+00  0.0000000000000000e+00 0.0000000000000000e+00 0.0000000000000000e+00  0.0000000000000000e+00 0.0000000000000000e+00 0.0000000000000000e+00  -2.1798704870362585e-03 -1.3486382842624591e-04 0.0000000000000000e+00  -4.4182440709982437e-03 -2.7147010624802107e-04 0.0000000000000000e+00  -6.7758518944852500e-03 -4.1136037632602106e-04 0.0000000000000000e+00  -9.3178777984625014e-03 -5.5568393051155253e-04 0.0000000000000000e+00  -9.4311096954287771e-03 -4.4072062732089621e-04 0.0000000000000000e+00  -9.3192531073694219e-03 -3.2664395366815513e-04 0.0000000000000000e+00  -6.0143963903634889e-03 -3.5850151417828117e-04 0.0000000000000000e+00  -2.8769148243680438e-03 -3.8198306362560871e-04 0.0000000000000000e+00  1.7903917422782477e-04 -3.9668862364624437e-04 0.0000000000000000e+00  3.2362103788937417e-03 -4.0285614585159403e-04 0.0000000000000000e+00  6.3773100577924841e-03 -4.0133886346638937e-04 0.0000000000000000e+00  9.6880981437858556e-03 -3.9365972013601623e-04 0.0000000000000000e+00  9.8022781621704917e-03 -5.2098456430031248e-04 0.0000000000000000e+00  9.6896071357973172e-03 -6.4713100630258834e-04 0.0000000000000000e+00  7.0529601153488950e-03 -4.7756015794888761e-04 0.0000000000000000e+00  4.6021726761966177e-03 -3.1446895162135923e-04 0.0000000000000000e+00  2.2715909483164987e-03 -1.5602315916770487e-04 0.0000000000000000e+00  -6.7761016647848129e-12 -6.5946186798380934e-12 0.0000000000000000e+00  0.0000000000000000e+00 0.0000000000000000e+00 0.0000000000000000e+00  -2.1124433205041799e-03 -2.1890937478892454e-05 0.0000000000000000e+00  -4.2826108277121402e-03 -4.1462232902466549e-05 0.0000000000000000e+00  -6.5700302595692777e-03 -5.6171334544811417e-05 0.0000000000000000e+00  -9.0378179174132236e-03 -6.3025653130012571e-05 0.0000000000000000e+00  -9.1485450997760651e-03 -4.4540835591192174e-04 0.0000000000000000e+00  -9.0387525501806690e-03 -8.2880403114617054e-04 0.0000000000000000e+00  -5.8263969121658968e-03 -8.2127565335633670e-04 0.0000000000000000e+00  -2.7775322155199310e-03 -8.2162548421827169e-04 0.0000000000000000e+00  1.9133957808435434e-04 -8.2908177932282932e-04 0.0000000000000000e+00  3.1611990654068041e-03 -8.4368400004410755e-04 0.0000000000000000e+00  6.2130134141107187e-03 -8.6626725951367248e-04 0.0000000000000000e+00  9.4302434331939803e-03 -8.9847695058019360e-04 0.0000000000000000e+00  9.5399756951663438e-03 -5.2451854342746651e-04 0.0000000000000000e+00  9.4276157574415733e-03 -1.4993814099574130e-04 0.0000000000000000e+00  6.8610086788697495e-03 -1.1936102255636336e-04 0.0000000000000000e+00  4.4759323707247705e-03 -8.2644035001514725e-05 0.0000000000000000e+00  2.2088993971570792e-03 -4.2198369360293644e-05 0.0000000000000000e+00  0.0000000000000000e+00 0.0000000000000000e+00 0.0000000000000000e+00  0.0000000000000000e+00 0.0000000000000000e+00 0.0000000000000000e+00  -1.8129533616719040e-03 8.1804277923453435e-05 0.0000000000000000e+00  -3.6755020743729316e-03 1.6909581594043988e-04 0.0000000000000000e+00  -5.6386303065115335e-03 2.6758934300129473e-04 0.0000000000000000e+00  -7.7560067762975056e-03 3.8346824976882247e-04 0.0000000000000000e+00  -7.8514293110421400e-03 -4.5437141221468965e-04 0.0000000000000000e+00  -7.7578276854600109e-03 -1.2931485320897501e-03 0.0000000000000000e+00  -4.9890749533447543e-03 -1.2527256107719461e-03 0.0000000000000000e+00  -2.3603174533536422e-03 -1.2330195390233036e-03 0.0000000000000000e+00  1.9980506158417605e-04 -1.2330701356277798e-03 0.0000000000000000e+00  2.7607515539697968e-03 -1.2527797163551305e-03 0.0000000000000000e+00  5.3919767903615598e-03 -1.2929091587421128e-03 0.0000000000000000e+00  8.1648313328988691e-03 -1.3550834011843121e-03 0.0000000000000000e+00  8.2564551469976755e-03 -5.2251074459283824e-04 0.0000000000000000e+00  8.1577986164440269e-03 3.1036540425768446e-04 0.0000000000000000e+00  5.9388256185828690e-03 2.1424618295396783e-04 0.0000000000000000e+00  3.8750731923817938e-03 1.3424090111068638e-04 0.0000000000000000e+00  1.9125632750201025e-03 6.4589350839434206e-05 0.0000000000000000e+00  0.0000000000000000e+00 0.0000000000000000e+00 0.0000000000000000e+00  0.0000000000000000e+00 0.0000000000000000e+00 0.0000000000000000e+00  -1.3137560764426878e-03 1.6357452518169576e-04 0.0000000000000000e+00  -2.6634498278954579e-03 3.3486286119450645e-04 0.0000000000000000e+00  -4.0860044623535824e-03 5.2180727261458661e-04 0.0000000000000000e+00  -5.6201042144748961e-03 7.3282443675787268e-04 0.0000000000000000e+00  -5.6904913667006063e-03 -4.6707581795435091e-04 0.0000000000000000e+00  -5.6236728728075681e-03 -1.6677218912186870e-03 0.0000000000000000e+00  -3.5962422596624243e-03 -1.6017304246361455e-03 0.0000000000000000e+00  -1.6705893513214735e-03 -1.5658079094588910e-03 0.0000000000000000e+00  2.0516709544006757e-04 -1.5588486126294578e-03 0.0000000000000000e+00  2.0816199824068900e-03 -1.5806334072224842e-03 0.0000000000000000e+00  4.0093589238968750e-03 -1.6318289042709481e-03 0.0000000000000000e+00  6.0402592401586162e-03 -1.7139894345563295e-03 0.0000000000000000e+00  6.1037191995557015e-03 -5.1688091984980597e-04 0.0000000000000000e+00  6.0289394816010807e-03 6.8030551229878345e-04 0.0000000000000000e+00  4.3916862784670260e-03 4.8339270344184229e-04 0.0000000000000000e+00  2.8667753407140019e-03 3.0971720756637651e-04 0.0000000000000000e+00  1.4152713215853333e-03 1.5114066326501357e-04 0.0000000000000000e+00  0.0000000000000000e+00 0.0000000000000000e+00 0.0000000000000000e+00  0.0000000000000000e+00 0.0000000000000000e+00 0.0000000000000000e+00  -6.6926380372359497e-04 2.1451717665351577e-04 0.0000000000000000e+00  -1.3571383040378291e-03 4.3802258367221726e-04 0.0000000000000000e+00  -2.0827982486877083e-03 6.7973533340533133e-04 0.0000000000000000e+00  -2.8662561052854381e-03 9.4934404520851171e-04 0.0000000000000000e+00  -2.9049481905932765e-03 -4.8235974517145706e-04 0.0000000000000000e+00  -2.8718216861654453e-03 -1.9144772371541064e-03 0.0000000000000000e+00  -1.8006810096435752e-03 -1.8309021856333829e-03 0.0000000000000000e+00  -7.8326018434251936e-04 -1.7831922761594775e-03 0.0000000000000000e+00  2.0793831359748691e-04 -1.7701080247322430e-03 0.0000000000000000e+00  1.1997353240496367e-03 -1.7913127811725348e-03 0.0000000000000000e+00  2.2189455795153749e-03 -1.8473725898118017e-03 0.0000000000000000e+00  3.2930503236397015e-03 -1.9397572100980777e-03 0.0000000000000000e+00  3.3219767315760818e-03 -5.0892856548699042e-04 0.0000000000000000e+00  