<?xml version="1.0"?>
<VTKFile type="UnstructuredGrid"  version="0.1"  >
<UnstructuredGrid>
<Piece  NumberOfPoints="589" NumberOfCells="1080">
<Points>
<DataArray  type="Float64"  NumberOfComponents="3"  format="ascii">-9 0 0  -8 0 0  -7 0 0  -6 0 0  -5 0 0  -4 0 0  -3 0 0  -2 0 0  -1 0 0  0 0 0  1 0 0  2 0 0  3 0 0  4 0 0  5 0 0  6 0 0  7 0 0  8 0 0  9 0 0  -9 2 0  -8.000008038465749 1.999987676182367 0  -7.000016873397175 1.999976890255404 0  -6.000028392574335 1.999968893272525 0  -5.000046923276667 1.999964240943663 0  -4.000027574102099 1.999973204270611 0  -3.000007677959456 1.99998181332612 0  -1.999998010091355 1.999989937634808 0  -0.9999964767292805 1.999996356558892 0  -1.618795481398951e-08 1.999999154435654 0  0.9999961094910083 1.999997152860263 0  1.999996512748341 1.999990815142243 0  3.000004302773296 1.999983036693899 0  4.000020469819706 1.999974675894877 0  5.00004395489047 1.999971132073351 0  6.00002661988525 1.999972398083196 0  7.000015875448993 1.999978733428171 0  8.000007592646929 1.999988494385048 0  9 2 0  -9 4 0  -8.00001289087718 3.999969201673286 0  -7.000023009865783 3.999942625380867 0  -6.000028738953561 3.999924408281422 0  -5.000030422334883 3.999918498001243 0  -4.000002085969879 3.999922630664704 0  -2.999983090768171 3.999947019434267 0  -1.999978191553814 3.99997881486643 0  -0.9999855258031638 4.000004396104466 0  4.888387403334858e-07 4.000014658859595 0  0.9999862293153 4.00000644822101 0  1.999977978670151 3.999984431611187 0  2.999982035153574 3.999954622987593 0  4.000000328452295 3.999924559922313 0  5.000028262712877 3.999914212138843 0  6.000026877279982 3.999924519439276 0  7.000021904104117 3.999943765392417 0  8.000012424279969 3.999970011154548 0  9 4 0  -9 6 0  -8.000028829759925 5.999933843348441 0  -7.000046705858494 5.999874927740328 0  -6.000045268138773 5.999830699890655 0  -5.000022112304345 5.999808308056806 0  -3.99996659600124 5.999844453801852 0  -2.999941354054904 5.999920176089664 0  -1.999951328009711 5.999999597449604 0  -0.9999762326261967 6.000043780659839 0  -1.485225754218229e-06 6.000052594087672 0  0.9999757654059487 6.000038113580595 0  1.999958414703692 5.999998148820517 0  2.999951943956207 5.999930622053455 0  3.999965217647462 5.999860513498394 0  5.000012941985781 5.999825547327072 0  6.00004148559684 5.999840889969709 0  7.000045958132384 5.999880802483581 0  8.00002903194693 5.99993655974359 0  9 6 0  -9 8 0  -8.000088570844383 7.999869540827694 0  -7.000147649469526 7.999748500634074 0  -6.000148665187468 7.999649668806141 0  -5.000067150170707 7.999594122120171 0  -3.999959685149927 7.999761484093146 0  -2.999979280214089 7.999958207075862 0  -2.000019439844472 8.000054191160748 0  -1.000022811235072 8.000065284234511 0  1.188936619401889e-06 8.000068548592051 0  1.000019047046567 8.000078264464813 0  2.000011452274053 8.000037774987138 0  2.999964328518644 7.999968891920551 0  3.999948311502512 7.999798387615769 0  5.00005456464664 7.999605949578223 0  6.000152362685112 7.99965901112077 0  7.000155589082356 7.999754483673282 0  8.000094047202928 7.999872393823922 0  9 8 0  -9 10 0  -8.000266179769977 9.999767643819213 0  -7.000480735541092 9.999533366202867 0  -6.000582081243977 9.999295705347729 0  -5.000484405757672 9.999054299611799 0  -4.0003141564581 9.999594554519595 0  -3.000341645465735 10.00005911402666 0  -2.000272324288963 9.99997951366991 0  -1.000122614986558 9.999953958447339 0  -1.21288506180532e-05 9.999947704355648 0  1.00009762962713 9.999948128854967 0  2.000244012526847 9.999944985549977 0  3.00037256405868 10.0001134042085 0  4.000355975827795 9.99966818622601 0  5.000551243348376 9.999080605900719 0  6.000641306131941 9.999307658476534 0  7.000524153920455 9.99953850968909 0  8.000288992524718 9.999769504192644 0  9 10 0  -9 12 0  -8.000649816725238 11.99967360632166 0  -7.001265897361978 11.99933205795027 0  -6.001810103934703 11.99895723260635 0  -5.002235071185692 11.99852386915514 0  -4.002148205444433 11.99950848992916 0  -3.002226568138461 12.00048316453729 0  -2.001521349845666 12.00036620820217 0  -1.000738171781354 12.00030348986403 0  7.418249894444326e-05 12.00029234362455 0  1.000893885487921 12.00033489968533 0  2.001702337512948 12.00044320880323 0  3.002462538488665 12.00064733643372 0  4.002377158312486 11.99957769148804 0  5.002433872744822 11.99849906161435 0  6.001958021942553 11.99894150452278 0  7.001364210823767 11.99932220400575 0  8.000698928904852 11.99966875900014 0  9 12 0  -9 14 0  -8.001167432912736 13.99964038393359 0  -7.00233700970511 13.99926419753788 0  -6.003512438637227 13.99885340902907 0  -5.004701393850699 13.99838711839943 0  -4.0047140122586 13.99953700531233 0  -3.004720762634152 14.00070137584105 0  -2.003084038913592 14.00053631367966 0  -1.00147121912776 14.00044705418559 0  0.00013135696531651 14.00042247154629 0  1.001736608414051 14.00045902716908 0  2.003356419595902 14.00055869014791 0  3.005000005830169 14.00072684804654 0  4.005011895832972 13.9995354342616 0  5.005019763139075 13.99835126530182 0  6.003744188673553 13.99882310728295 0  7.00248874995427 13.99924294496808 0  8.001242578903057 13.99962952677406 0  9 14 0  -9 16 0  -8.001675158005479 15.99967357344878 0  -7.003382545133001 15.99933502243486 0  -6.005157175829068 15.99897201083083 0  -5.007039717603989 15.99857196945385 0  -4.007107258086291 15.99955104386427 0  -3.007043433643317 16.00052485813534 0  -2.004554537817854 16.0004042757028 0  -1.002164776833858 16.000332772415 0  0.0001779193965721992 16.0003088264427 0  1.002522736301252 16.00033149538496 0  2.004918840017463 16.00040096238407 0  3.00741851750789 16.00051828629318 0  4.007489472267487 15.99950424084089 0  5.007427236125261 15.99848937485623 0  6.005445764938144 15.9989132645807 0  7.003573762730598 15.99929708539191 0  8.001770392930128 15.99965492747895 0  9 16 0  -9 18 0  -8.002052577519889 17.99975529524266 0  -7.004156620791237 17.99950382718326 0  -6.006366267678096 17.99923895494342 0  -5.008740960113135 17.99895430453896 0  -4.008842786883932 17.99955399933568 0  -3.008744479045651 18.0001528496281 0  -2.005632894243185 18.00007680241789 0  -1.002672120245719 18.00002917584543 0  0.0002159500841750261 18.00000962685669 0  1.003105634964065 18.00001765792792 0  2.006071147231625 18.00005265755116 0  3.009190236657672 18.00011375349881 0  4.009294121926028 17.99948105825894 0  5.009195090980473 17.99885013371108 0  6.006704832460195 17.99916404464082 0  7.004381332399718 17.99945535452722 0  8.002164631554201 17.9997314852279 0  9 18 0  -9 20 0  -8.002222849778722 19.99986404922389 0  -7.004505735829816 19.99972628355988 0  -6.006910984204631 19.99958508940828 0  -5.009505497970633 19.99943924561605 0  -4.009621620084307 19.99955381470476 0  -3.009506720509189 19.99966742130244 0  -2.006112983783484 19.99963629701026 0  -1.002891001969336 19.99961394110121 0  0.0002474500381897905 19.99960077812379 0  1.003387407411179 19.99959659639975 0  2.006613879511146 19.99960057061353 0  3.010015027544851 19.99961120622998 0  4.010132472949079 19.99946967202796 0  5.010016575026997 19.99932930884565 0  6.007292093409236 19.99950532875419 0  7.004758761314571 19.99967438946988 0  8.002349048847604 19.99983848567053 0  8.999999999994248 19.9999999999934 0  -9 22 0  -8.002151786245573 21.99998003956791 0  -7.004362863994438 21.99996245070794 0  -6.006694387561804 21.99994983124487 0  -5.009211217006188 21.99994523652193 0  -4.009324876064935 21.99954903120474 0  -3.009211964286011 21.9991517233324 0  -2.005911111500373 21.99916093572761 0  -1.002778139206257 21.99916217328708 0  0.0002729401514940655 21.99915624388724 0  1.003325517503431 21.99914313342607 0  2.006462981721898 21.99912202141584 0  3.00977131775686 21.99909126581776 0  4.009884552386321 21.99946618609258 0  5.009768650881549 21.99984170093501 0  6.007110167100607 21.99987443543649 0  7.004638950966474 21.99991325509869 0  8.002289495310144 21.99995576228166 0  9 22 0  -9 24 0  -8.001842326009717 24.00008654666793 0  -7.003735605791532 24.00017874245088 0  -6.005732235895762 24.00028246922086 0  -5.007887393819157 24.00040409201641 0  -4.007985365055498 23.99953976607553 0  -3.007889048824374 23.99867440867593 0  -2.005042639535064 23.99871727756647 0  -1.002339971317014 23.99873888899741 0  0.0002925658217232386 23.99874024849867 0  1.002926615500331 23.99872147813057 0  2.005633830333687 23.99868182043365 0  3.008487850078077 23.99861963247049 0  4.008582685093958 23.99946840671742 0  5.008480647318262 24.00031744132812 0  6.006174773811646 24.00021916709982 0  7.00402948077786 24.00013734366473 0  8.001988910791006 24.00006608853167 0  9 24 0  -9 26 0  -8.001327642016433 26.00017048478596 0  -7.00269216858281 26.00034892847395 0  -6.004131491486314 26.0005435264983 0  -5.005685351638783 26.00076296644724 0  -4.005757537460271 25.99952653440725 0  -3.005688808164762 25.99828926896455 0  -2.003603953158885 25.99835820201781 0  -1.001623431049958 25.99839616689641 0  0.000306347324194202 25.99840432223815 0  1.002237638210867 25.99838291053846 0  2.004222708961682 25.99833125918823 0  3.006315183640905 25.99824777806338 0  4.006381120007399 25.99947432835414 0  5.006303539390728 26.00070090306923 0  6.004592702995645 26.00049808856303 0  7.002998479366935 26.00031916448562 0  8.001480440055179 26.00015576085416 0  9 26 0  -9 28 0  -8.000663778355472 28.00022261819315 0  -7.001346558317104 28.00045451796194 0  -6.002067931225175 28.00070522141698 0  -5.002848357152912 28.00098474017411 0  -4.002887821924474 27.99951053570962 0  -3.002853861118481 27.99803584738707 0  -2.001752593784974 27.99812252743739 0  -1.000706025568273 27.99817220529695 0  0.0003142861966285895 27.99818617822499 0  1.001336086639626 27.99816480456352 0  2.00238712874103 27.99810750456485 0  3.003495879506693 27.99801275892442 0  4.003526234789256 27.99948259346153 0  5.0034805791066 28.00095236891078 0  6.002539707580744 28.0006814731721 0  7.001659933752764 28.00043893741206 0  8.000820118252962
[...]
<PointData  Vectors="f_42"> 
<DataArray  type="Float64"  Name="f_42"  NumberOfComponents="3" format="ascii">0.0000000000000000e+00 0.0000000000000000e+00 0.0000000000000000e+00  0.0000000000000000e+00 0.0000000000000000e+00 0.0000000000000000e+00  0.0000000000000000e+00 0.0000000000000000e+00 0.0000000000000000e+00  0.0000000000000000e+00 0.0000000000000000e+00 0.0000000000000000e+00  0.0000000000000000e+00 0.0000000000000000e+00 0.0000000000000000e+00  0.0000000000000000e+00 0.0000000000000000e+00 0.0000000000000000e+00  0.0000000000000000e+00 0.0000000000000000e+00 0.0000000000000000e+00  0.0000000000000000e+00 0.0000000000000000e+00 0.0000000000000000e+00  0.0000000000000000e+00 0.0000000000000000e+00 0.0000000000000000e+00  0.0000000000000000e+00 0.0000000000000000e+00 0.0000000000000000e+00  0.0000000000000000e+00 0.0000000000000000e+00 0.0000000000000000e+00  0.0000000000000000e+00 0.0000000000000000e+00 0.0000000000000000e+00  0.0000000000000000e+00 0.0000000000000000e+00 0.0000000000000000e+00  0.0000000000000000e+00 0.0000000000000000e+00 0.0000000000000000e+00  0.0000000000000000e+00 0.0000000000000000e+00 0.0000000000000000e+00  0.0000000000000000e+00 0.0000000000000000e+00 0.0000000000000000e+00  0.0000000000000000e+00 0.0000000000000000e+00 0.0000000000000000e+00  0.0000000000000000e+00 0.0000000000000000e+00 0.0000000000000000e+00  0.0000000000000000e+00 0.0000000000000000e+00 0.0000000000000000e+00  0.0000000000000000e+00 0.0000000000000000e+00 0.0000000000000000e+00  -8.0384657567436637e-06 -1.2323817631275787e-05 0.0000000000000000e+00  -1.6873397169638902e-05 -2.3109744596177906e-05 0.0000000000000000e+00  -2.8392574335870490e-05 -3.1106727475190198e-05 0.0000000000000000e+00  -4.6923276674051512e-05 -3.5759056338764973e-05 0.0000000000000000e+00  -2.7574102097153544e-05 -2.6795729388285132e-05 0.0000000000000000e+00  -7.6779594598096919e-06 -1.8186673879222442e-05 0.0000000000000000e+00  1.9899086461478428e-06 -1.0062365192948191e-05 0.0000000000000000e+00  3.5232707188800322e-06 -3.6434411078711847e-06 0.0000000000000000e+00  -1.6187954813989508e-08 -8.4556434717358252e-07 0.0000000000000000e+00  -3.8905089909568830e-06 -2.8471397357234234e-06 0.0000000000000000e+00  -3.4872516602873238e-06 -9.1848577548010456e-06 0.0000000000000000e+00  4.3027732987901547e-06 -1.6963306103480725e-05 0.0000000000000000e+00  2.0469819706724417e-05 -2.5324105123189901e-05 0.0000000000000000e+00  4.3954890470614291e-05 -2.8867926649069336e-05 0.0000000000000000e+00  2.6619885246746764e-05 -2.7601916804671767e-05 0.0000000000000000e+00  1.5875448991341227e-05 -2.1266571829745379e-05 0.0000000000000000e+00  7.5926469232680360e-06 -1.1505614953746270e-05 0.0000000000000000e+00  0.0000000000000000e+00 0.0000000000000000e+00 0.0000000000000000e+00  0.0000000000000000e+00 0.0000000000000000e+00 0.0000000000000000e+00  -1.2890877175878812e-05 -3.0798326715325047e-05 0.0000000000000000e+00  -2.3009865777602726e-05 -5.7374619132705963e-05 0.0000000000000000e+00  -2.8738953560875509e-05 -7.5591718578792215e-05 0.0000000000000000e+00  -3.0422334887655643e-05 -8.1501998755117067e-05 0.0000000000000000e+00  -2.0859698816595701e-06 -7.7369335295820403e-05 0.0000000000000000e+00  1.6909231828202004e-05 -5.2980565730807033e-05 0.0000000000000000e+00  2.1808446185419438e-05 -2.1185133571203622e-05 0.0000000000000000e+00  1.4474196836172779e-05 4.3961044670551744e-06 0.0000000000000000e+00  4.8883874033348578e-07 1.4658859596495042e-05 0.0000000000000000e+00  -1.3770684700161274e-05 6.4482210155842842e-06 0.0000000000000000e+00  -2.2021329848140214e-05 -1.5568388813459775e-05 0.0000000000000000e+00  -1.7964846421718684e-05 -4.5377012407004964e-05 0.0000000000000000e+00  3.2845229123765130e-07 -7.5440077686702567e-05 0.0000000000000000e+00  2.8262712870705559e-05 -8.5787861156825859e-05 0.0000000000000000e+00  2.6877279978287184e-05 -7.5480560723012769e-05 0.0000000000000000e+00  2.1904104118230980e-05 -5.6234607581670696e-05 0.0000000000000000e+00  1.2424279983717861e-05 -2.9988845453701001e-05 0.0000000000000000e+00  0.0000000000000000e+00 0.0000000000000000e+00 0.0000000000000000e+00  0.0000000000000000e+00 0.0000000000000000e+00 0.0000000000000000e+00  -2.8829759933889567e-05 -6.6156651564499547e-05 0.0000000000000000e+00  -4.6705858490003100e-05 -1.2507225967059020e-04 0.0000000000000000e+00  -4.5268138782439162e-05 -1.6930010934261937e-04 0.0000000000000000e+00  -2.2112304341751817e-05 -1.9169194319122851e-04 0.0000000000000000e+00  3.3403998761536967e-05 -1.5554619814117166e-04 0.0000000000000000e+00  5.8645945096686693e-05 -7.9823910331325849e-05 0.0000000000000000e+00  4.8671990288615455e-05 -4.0255039773670296e-07 0.0000000000000000e+00  2.3767373803684469e-05 4.3780659838508916e-05 0.0000000000000000e+00  -1.4852257542182287e-06 5.2594087669202428e-05 0.0000000000000000e+00  -2.4234594051856475e-05 3.8113580597984186e-05 0.0000000000000000e+00  -4.1585296307479884e-05 -1.8511794857452104e-06 0.0000000000000000e+00  -4.8056043793675177e-05 -6.9377946538886330e-05 0.0000000000000000e+00  -3.4782352538185547e-05 -1.3948650160570432e-04 0.0000000000000000e+00  1.2941985780581210e-05 -1.7445267292877506e-04 0.0000000000000000e+00  4.1485596832520431e-05 -1.5911003028846714e-04 0.0000000000000000e+00  4.5958132381045785e-05 -1.1919751641910131e-04 0.0000000000000000e+00  2.9031946928840312e-05 -6.3440256411443485e-05 0.0000000000000000e+00  0.0000000000000000e+00 0.0000000000000000e+00 0.0000000000000000e+00  0.0000000000000000e+00 0.0000000000000000e+00 0.0000000000000000e+00  -8.8570844392871990e-05 -1.3045917230432056e-04 0.0000000000000000e+00  -1.4764946952662824e-04 -2.5149936592716658e-04 0.0000000000000000e+00  -1.4866518746699055e-04 -3.5033119386427804e-04 0.0000000000000000e+00  -6.7150170708253989e-05 -4.0587787981992570e-04 0.0000000000000000e+00  4.0314850074149860e-05 -2.3851590685026815e-04 0.0000000000000000e+00  2.0719785908999127e-05 -4.1792924139531456e-05 0.0000000000000000e+00  -1.9439844472494812e-05 5.4191160753186766e-05 0.0000000000000000e+00  -2.2811235072093005e-05 6.5284234517007004e-05 0.0000000000000000e+00  1.1889366194018889e-06 6.8548592047826449e-05 0.0000000000000000e+00  1.9047046567864581e-05 7.8264464804832137e-05 0.0000000000000000e+00  1.1452274051633107e-05 3.7774987126816900e-05 0.0000000000000000e+00  -3.5671481357032973e-05 -3.1108079444754107e-05 0.0000000000000000e+00  -5.1688497489978362e-05 -2.0161238422725800e-04 0.0000000000000000e+00  5.4564646634311907e-05 -3.9405042178418349e-04 0.0000000000000000e+00  1.5236268511383241e-04 -3.4098887922931481e-04 0.0000000000000000e+00  1.5558908235640848e-04 -2.4551632672559578e-04 0.0000000000000000e+00  9.4047202922517727e-05 -1.2760617607811170e-04 0.0000000000000000e+00  0.0000000000000000e+00 0.0000000000000000e+00 0.0000000000000000e+00  0.0000000000000000e+00 0.0000000000000000e+00 0.0000000000000000e+00  -2.6617976998203339e-04 -2.3235618078410082e-04 0.0000000000000000e+00  -4.8073554109065030e-04 -4.6663379713221830e-04 0.0000000000000000e+00  -5.8208124397827836e-04 -7.0429465226585662e-04 0.0000000000000000e+00  -4.8440575767316025e-04 -9.4570038820482468e-04 0.0000000000000000e+00  -3.1415645809521411e-04 -4.0544548039920251e-04 0.0000000000000000e+00  -3.4164546573673288e-04 5.9114026657234387e-05 0.0000000000000000e+00  -2.7232428896558085e-04 -2.0486330085856181e-05 0.0000000000000000e+00  -1.2261498655822577e-04 -4.6041552661081519e-05 0.0000000000000000e+00  -1.2128850618053202e-05 -5.2295644366706673e-05 0.0000000000000000e+00  9.7629627132058588e-05 -5.1871145034291555e-05 0.0000000000000000e+00  2.4401252684868341e-04 -5.5014450031210389e-05 0.0000000000000000e+00  3.7256405868059227e-04 1.1340420850422234e-04 0.0000000000000000e+00  3.5597582780038143e-04 -3.3181377399199336e-04 0.0000000000000000e+00  5.5124334838141289e-04 -9.1939409928259704e-04 0.0000000000000000e+00  6.4130613194729653e-04 -6.9234152347027252e-04 0.0000000000000000e+00  5.2415392045252124e-04 -4.6149031090830214e-04 0.0000000000000000e+00  2.8899252471305893e-04 -2.3049580735758272e-04 0.0000000000000000e+00  0.0000000000000000e+00 0.0000000000000000e+00 0.0000000000000000e+00  0.0000000000000000e+00 0.0000000000000000e+00 0.0000000000000000e+00  -6.4981672523608560e-04 -3.2639367834063439e-04 0.0000000000000000e+00  -1.2658973619775159e-03 -6.6794204973236225e-04 0.0000000000000000e+00  -1.8101039347027518e-03 -1.0427673936359741e-03 0.0000000000000000e+00  -2.2350711856882629e-03 -1.4761308448491516e-03 0.0000000000000000e+00  -2.1482054444336872e-03 -4.9151007083440563e-04 0.0000000000000000e+00  -2.2265681384621020e-03 4.8316453729575532e-04 0.0000000000000000e+00  -1.5213498456659138e-03 3.6620820217309600e-04 0.0000000000000000e+00  -7.3817178135409712e-04 3.0348986402592860e-04 0.0000000000000000e+00  7.4182498944443259e-05 2.9234362455360645e-04 0.0000000000000000e+00  8.9388548792036836e-04 3.3489968532636222e-04 0.0000000000000000e+00  1.7023375129451791e-03 4.4320880322865303e-04 0.0000000000000000e+00  2.4625384886632884e-03 6.4733643371281478e-04 0.0000000000000000e+00  2.3771583124897410e-03 -4.2230851194444743e-04 0.0000000000000000e+00  2.4338727448145179e-03 -1.5009383856427363e-03 0.0000000000000000e+00  1.9580219425524110e-03 -1.0584954772179019e-03 0.0000000000000000e+00  1.3642108237732666e-03 -6.7779599425744962e-04 0.0000000000000000e+00  6.9892890484960087e-04 -3.3124099986475111e-04 0.0000000000000000e+00  0.0000000000000000e+00 0.0000000000000000e+00 0.0000000000000000e+00  0.0000000000000000e+00 0.0000000000000000e+00 0.0000000000000000e+00  -1.1674329127417935e-03 -3.5961606641192326e-04 0.0000000000000000e+00  -2.3370097051109997e-03 -7.3580246212429708e-04 0.0000000000000000e+00  -3.5124386372301776e-03 -1.1465909709360205e-03 0.0000000000000000e+00  -4.7013938507036116e-03 -1.6128816005748139e-03 0.0000000000000000e+00  -4.7140122586011553e-03 -4.6299468766460044e-04 0.0000000000000000e+00  -4.7207626341506589e-03 7.0137584104751902e-04 0.0000000000000000e+00  -3.0840389135909593e-03 5.3631367965056636e-04 0.0000000000000000e+00  -1.4712191277588427e-03 4.4705418557583140e-04 0.0000000000000000e+00  1.3135696531651003e-04 4.2247154628442856e-04 0.0000000000000000e+00  1.7366084140495229e-03 4.5902716908884545e-04 0.0000000000000000e+00  3.3564195959041986e-03 5.5869014791202706e-04 0.0000000000000000e+00  5.0000058301698739e-03 7.2684804653322410e-04 0.0000000000000000e+00  5.0118958329651350e-03 -4.6456573840514715e-04 0.0000000000000000e+00  5.0197631390776773e-03 -1.6487346981808346e-03 0.0000000000000000e+00  3.7441886735489686e-03 -1.1768927170475508e-03 0.0000000000000000e+00  2.4887499542684531e-03 -7.5705503192831630e-04 0.0000000000000000e+00  1.2425789030538210e-03 -3.7047322594100691e-04 0.0000000000000000e+00  0.0000000000000000e+00 0.0000000000000000e+00 0.0000000000000000e+00  0.0000000000000000e+00 0.0000000000000000e+00 0.0000000000000000e+00  -1.6751580054770716e-03 -3.2642655123247606e-04 0.0000000000000000e+00  -3.3825451330023000e-03 -6.6497756513305263e-04 0.0000000000000000e+00  -5.1571758290671664e-03 -1.0279891691684258e-03 0.0000000000000000e+00  -7.0397176039890324e-03 -1.4280305461623882e-03 0.0000000000000000e+00  -7.1072580862872447e-03 -4.4895613572412885e-04 0.0000000000000000e+00  -7.0434336433182875e-03 5.2485813534649639e-04 0.0000000000000000e+00  -4.5545378178533510e-03 4.0427570281308394e-04 0.0000000000000000e+00  -2.1647768338584903e-03 3.3277241499426048e-04 0.0000000000000000e+00  1.7791939657219917e-04 3.0882644270112668e-04 0.0000000000000000e+00  2.5227363012518193e-03 3.3149538495229011e-04 0.0000000000000000e+00  4.9188400174605363e-03 4.0096238406051748e-04 0.0000000000000000e+00  7.4185175078934299e-03 5.1828629317827004e-04 0.0000000000000000e+00  7.4894722674837865e-03 -4.9575915909446505e-04 0.0000000000000000e+00  7.4272361252649220e-03 -1.5106251437709511e-03 0.0000000000000000e+00  5.4457649381459555e-03 -1.0867354192984318e-03 0.0000000000000000e+00  3.5737627305969543e-03 -7.0291460809242744e-04 0.0000000000000000e+00  1.7703929301330081e-03 -3.4507252104652990e-04 0.0000000000000000e+00  0.0000000000000000e+00 0.0000000000000000e+00 0.0000000000000000e+00  0.0000000000000000e+00 0.0000000000000000e+00 0.0000000000000000e+00  -2.0525775198728057e-03 -2.4470475731700581e-04 0.0000000000000000e+00  -4.1566207912362716e-03 -4.9617281672146153e-04 0.0000000000000000e+00  -6.3662676780955867e-03 -7.6104505659134100e-04 0.0000000000000000e+00  -8.7409601131363916e-03 -1.0456954610311906e-03 0.0000000000000000e+00  -8.8427868839276672e-03 -4.4600066432073937e-04 0.0000000000000000e+00  -8.7444790456515827e-03 1.5284962811636121e-04 0.0000000000000000e+00  -5.6328942431834650e-03 7.6802417880257362e-05 0.0000000000000000e+00  -2.6721202457209662e-03 2.9175845429632349e-05 0.0000000000000000e+00  2.1595008417502610e-04 9.6268566864821370e-06 0.0000000000000000e+00  3.1056349640651887e-03 1.7657927915217995e-05 0.0000000000000000e+00  6.0711472316216713e-03 5.2657551158009078e-05 0.0000000000000000e+00  9.1902366576727124e-03 1.1375349879059808e-04 0.0000000000000000e+00  9.2941219260268045e-03 -5.1894174107108143e-04 0.0000000000000000e+00  9.1950909804765692e-03 -1.1498662889372680e-03 0.0000000000000000e+00  6.7048324601950635e-03 -8.3595535919686495e-04 0.0000000000000000e+00  4.3813323997237584e-03 -5.4464547277478608e-04 0.0000000000000000e+00  2.1646315541975400e-03 -2.6851477209613418e-04 0.0000000000000000e+00  0.0000000000000000e+00 0.0000000000000000e+00 0.0000000000000000e+00  0.0000000000000000e+00 0.0000000000000000e+00 0.0000000000000000e+00  -2.2228497787107489e-03 -1.3595077611996124e-04 0.0000000000000000e+00  -4.5057358298154016e-03 -2.7371644012451319e-04 0.0000000000000000e+00  -6.9109842046349021e-03 -4.1491059168989998e-04 0.0000000000000000e+00  -9.5054979706324337e-03 -5.6075438394380590e-04 0.0000000000000000e+00  -9.6216200843042294e-03 -4.4618529522228156e-04 0.0000000000000000e+00  -9.5067205091913902e-03 -3.3257869756510820e-04 0.0000000000000000e+00  -6.1129837834835010e-03 -3.6370298974025311e-04 0.0000000000000000e+00  -2.8910019693367899e-03 -3.8605889878832637e-04 0.0000000000000000e+00  2.4745003818979055e-04 -3.9922187619509565e-04 0.0000000000000000e+00  3.3874074111803084e-03 -4.0340360024884167e-04 0.0000000000000000e+00  6.6138795111503222e-03 -3.9942938647660080e-04 0.0000000000000000e+00  1.0015027544852633e-02 -3.8879377003964231e-04 0.0000000000000000e+00  1.0132472949081038e-02 -5.3032797204857827e-04 0.0000000000000000e+00  1.0016575026995199e-02 -6.7069115434539406e-04 0.0000000000000000e+00  7.2920934092356700e-03 -4.9467124581735586e-04 0.0000000000000000e+00  4.7587613145697151e-03 -3.2561053011068543e-04 0.0000000000000000e+00  2.3490488475820647e-03 -1.6151432948535027e-04 0.0000000000000000e+00  -5.7547394823938325e-12 -6.5946186798380934e-12 0.0000000000000000e+00  0.0000000000000000e+00 0.0000000000000000e+00 0.0000000000000000e+00  -2.1517862455714639e-03 -1.9960432099645027e-05 0.0000000000000000e+00  -4.3628639944412436e-03 -3.7549292070409371e-05 0.0000000000000000e+00  -6.6943875618040126e-03 -5.0168755117678514e-05 0.0000000000000000e+00  -9.2112170061866994e-03 -5.4763478067317135e-05 0.0000000000000000e+00  -9.3248760649364253e-03 -4.5096879523727365e-04 0.0000000000000000e+00  -9.2119642860124234e-03 -8.4827666758838726e-04 0.0000000000000000e+00  -5.9111115003706131e-03 -8.3906427236719004e-04 0.0000000000000000e+00  -2.7781392062579103e-03 -8.3782671290506664e-04 0.0000000000000000e+00  2.7294015149406550e-04 -8.4375611277707260e-04 0.0000000000000000e+00  3.3255175034310456e-03 -8.5686657393551746e-04 0.0000000000000000e+00  6.4629817218962325e-03 -8.7797858418229701e-04 0.0000000000000000e+00  9.7713177568597431e-03 -9.0873418224525851e-04 0.0000000000000000e+00  9.8845523863243575e-03 -5.3381390739896961e-04 0.0000000000000000e+00  9.7686508815488030e-03 -1.5829906499666846e-04 0.0000000000000000e+00  7.1101671006047031e-03 -1.2556456350460763e-04 0.0000000000000000e+00  4.6389509664711576e-03 -8.6744901290183269e-05 0.0000000000000000e+00  2.2894953101363978e-03 -4.4237718334425278e-05 0.0000000000000000e+00  0.0000000000000000e+00 0.0000000000000000e+00 0.0000000000000000e+00  0.0000000000000000e+00 0.0000000000000000e+00 0.0000000000000000e+00  -1.8423260097080131e-03 8.6546667929162603e-05 0.0000000000000000e+00  -3.7356057915342872e-03 1.7874245089612905e-04 0.0000000000000000e+00  -5.7322358957677339e-03 2.8246922087268639e-04 0.0000000000000000e+00  -7.8873938191477127e-03 4.0409201640280483e-04 0.0000000000000000e+00  -7.9853650554965166e-03 -4.6023392445266025e-04 0.0000000000000000e+00  -7.8890488243737039e-03 -1.3255913240765829e-03 0.0000000000000000e+00  -5.0426395350600343e-03 -1.2827224335333046e-03 0.0000000000000000e+00  -2.3399713170144908e-03 -1.2611110025874098e-03 0.0000000000000000e+00  2.9256582172323861e-04 -1.2597515013367962e-03 0.0000000000000000e+00  2.9266155003296467e-03 -1.2785218694262375e-03 0.0000000000000000e+00  5.6338303336905338e-03 -1.3181795663360395e-03 0.0000000000000000e+00  8.4878500780749336e-03 -1.3803675294990526e-03 0.0000000000000000e+00  8.5826850939525207e-03 -5.3159328258601981e-04 0.0000000000000000e+00  8.4806473182609515e-03 3.1744132812217045e-04 0.0000000000000000e+00  6.1747738116474547e-03 2.1916709984399842e-04 0.0000000000000000e+00  4.0294807778593154e-03 1.3734366471695225e-04 0.0000000000000000e+00  1.9889107910059070e-03 6.6088531682535287e-05 0.0000000000000000e+00  0.0000000000000000e+00 0.0000000000000000e+00 0.0000000000000000e+00  0.0000000000000000e+00 0.0000000000000000e+00 0.0000000000000000e+00  -1.3276420164339588e-03 1.7048478595894893e-04 0.0000000000000000e+00  -2.6921685828107710e-03 3.4892847396673395e-04 0.0000000000000000e+00  -4.1314914863117428e-03 5.4352649828409206e-04 0.0000000000000000e+00  -5.6853516387770477e-03 7.6296644724182670e-04 0.0000000000000000e+00  -5.7575374602727974e-03 -4.7346559274459517e-04 0.0000000000000000e+00  -5.6888081647587414e-03 -1.7107310354474671e-03 0.0000000000000000e+00  -3.6039531588858576e-03 -1.6417979821901458e-03 0.0000000000000000e+00  -1.6234310499578148e-03 -1.6038331035747929e-03 0.0000000000000000e+00  3.0634732419420197e-04 -1.5956777618415675e-03 0.0000000000000000e+00  2.2376382108671099e-03 -1.6170894615141964e-03 0.0000000000000000e+00  4.2227089616834902e-03 -1.6687408117935872e-03 0.0000000000000000e+00  6.3151836409037418e-03 -1.7522219366273289e-03 0.0000000000000000e+00  6.3811200073995832e-03 -5.2567164585723446e-04 0.0000000000000000e+00  6.3035393907264524e-03 7.0090306923539856e-04 0.0000000000000000e+00  4.5927029956452188e-03 4.9808856301873639e-04 0.0000000000000000e+00  2.9984793669355666e-03 3.1916448562683473e-04 0.0000000000000000e+00  1.4804400551798247e-03 1.5576085417310964e-04 0.0000000000000000e+00  0.0000000000000000e+00 0.0000000000000000e+00 0.0000000000000000e+00  0.0000000000000000e+00 0.0000000000000000e+00 0.0000000000000000e+00  -6.6377835546937438e-04 2.2261819314936367e-04 0.0000000000000000e+00  -1.3465583171042305e-03 4.5451796193669825e-04 0.0000000000000000e+00  -2.0679312251783645e-03 7.0522141697399441e-04 0.0000000000000000e+00  -2.8483571529126840e-03 9.8474017410517408e-04 0.0000000000000000e+00  -2.8878219244794197e-03 -4.8946429038587724e-04 0.0000000000000000e+00  -2.8538611184791294e-03 -1.9641526129573379e-03 0.0000000000000000e+00  -1.7525937849751049e-03 -1.8774725626283754e-03 0.0000000000000000e+00  -7.0602556827394807e-04 -1.8277947030630782e-03 0.0000000000000000e+00  3.1428619662858949e-04 -1.8138217750352295e-03 0.0000000000000000e+00  1.3360866396263191e-03 -1.8351954364742413e-03 0.0000000000000000e+00  2.3871287410307343e-03 -1.8924954351503538e-03 0.0000000000000000e+00  3.4958795066970250e-03 -1.9872410755867658e-03 0.0000000000000000e+00  3.5262347892525735e-03 -5.1740653847629392e-04 0.0000000000000000e+00  3.