<?xml version="1.0"?>
<VTKFile type="UnstructuredGrid"  version="0.1"  >
<UnstructuredGrid>
<Piece  NumberOfPoints="589" NumberOfCells="1080">
<Points>
<DataArray  type="Float64"  NumberOfComponents="3"  format="ascii">-9 0 0  -8 0 0  -7 0 0  -6 0 0  -5 0 0  -4 0 0  -3 0 0  -2 0 0  -1 0 0  0 0 0  1 0 0  2 0 0  3 0 0  4 0 0  5 0 0  6 0 0  7 0 0  8 0 0  9 0 0  -9 2 0  -8.000001575559953 1.999998125366033 0  -7.000003338507167 1.99999641786368 0  -6.000005639960914 1.99999500548141 0  -5.000009208179707 1.999993919286563 0  -4.00000617293503 1.999995630263347 0  -3.000002899757123 1.999996914880792 0  -2.000001074757056 1.9999979728451 0  -1.000000295945158 1.999998797897435 0  -1.662724742531842e-07 1.999999157678796 0  0.9999999091963567 1.999998925146801 0  2.000000501390054 1.99999815451636 0  3.000002009595633 1.999997173892164 0  4.000004584607752 1.99999605164611 0  5.000008170445621 1.999995415254882 0  6.000004957860305 1.99999583689773 0  7.000002919808922 1.999996881379339 0  8.000001375753497 1.999998337171207 0  9 2 0  -9 4 0  -8.000002401563751 3.999995582223649 0  -7.000004522984364 3.99999165526161 0  -6.000006212851678 3.999988706221572 0  -5.00000752788883 3.999987214661756 0  -4.000003493632842 3.999987846070266 0  -3.000000545115392 3.999990938225677 0  -1.999999244093449 3.999994951817057 0  -0.9999993746569881 3.999998138899082 0  -3.116704453102396e-07 3.999999434921579 0  0.9999987075752033 3.999998485861359 0  1.99999843730458 3.999995837221836 0  2.999999620626847 3.999992217022753 0  4.000002447248199 3.999988567195132 0  5.000006272605506 3.999987251884579 0  6.000005217566637 3.999989182451778 0  7.00000386362349 3.999992117536133 0  8.000002078289221 3.999995846213638 0  9 4 0  -9 6 0  -8.000004348122811 5.99999107589521 0  -7.000007433677262 5.999982981034769 0  -6.000008285074506 5.999976577095704 0  -5.000006610736804 5.999972709853884 0  -3.999999398909559 5.999977065967587 0  -2.99999577768765 5.999986210880434 0  -1.999996281143998 5.999995795381847 0  -0.9999985525286219 6.00000116592944 0  -8.700084544219399e-07 6.000002309188736 0  0.9999971326961923 6.000000589361575 0  1.999995803370141 5.999995844384793 0  2.999995707806773 5.999987894048375 0  3.99999786148465 5.999979669417566 0  5.00000402932899 5.999975676975088 0  6.00000667289868 5.999978509990558 0  7.000006532990313 5.999984179385826 0  8.000003952620245 5.999991654885977 0  9 6 0  -9 8 0  -8.000011345171783 7.999983252884671 0  -7.000019280908542 7.999967543434712 0  -6.000020460207963 7.999954301480407 0  -5.000011909728406 7.999945922165738 0  -3.999998808684363 7.999965803983064 0  -3.000000447429214 7.999989183812391 0  -2.000004559666148 8.000000736264127 0  -1.000004362171056 8.000002295259984 0  -9.9034714035525e-07 8.000002760096001 0  1.000001721800816 8.000003766980308 0  2.00000141281022 7.9999989895556 0  2.999996642366676 7.999990672746422 0  3.999995703229323 7.999970841146336 0  5.000008712272034 7.999948642491476 0  6.000019261957381 7.999956492412762 0  7.000018963981402 7.999969017131531 0  8.000011315750506 7.999983985351296 0  9 8 0  -9 10 0  -8.000031978611968 9.999971280325104 0  -7.000058152418191 9.999942237550634 0  -6.000071553063452 9.999912578095378 0  -5.00006240176775 9.99988207352736 0  -4.000042257549134 9.99994474113057 0  -3.000044177396883 9.999998876588963 0  -2.000034817455581 9.999990465091518 0  -1.000016535808893 9.999987768314632 0  -2.808099937205262e-06 9.999987124022066 0  1.000010799986607 9.999987106982381 0  2.000028493214425 9.999986549381854 0  3.000044845570047 10.00000469488222 0  4.000044287211277 9.999953870370652 0  5.000066688799197 9.999887419373936 0  6.000075238921456 9.999915777796849 0  7.000060794260857 9.999944082103747 0  8.000033347794208 9.999972130905297 0  9 10 0  -9 12 0  -8.00007582528016 11.99996060241378 0  -7.000148106875297 11.9999194021293 0  -6.000212835222835 11.99987424149279 0  -5.000265068206233 11.99982210867246 0  -4.00025529467066 11.99993388921628 0  -3.000263440388603 12.00004457658424 0  -2.000180647797592 12.00003108368619 0  -1.00009002840909 12.00002374146218 0  3.518333506214402e-06 12.00002216261753 0  1.000098072912124 12.00002654944062 0  2.000192127774483 12.00003826349082 0  3.000282305686424 12.00006075233654 0  4.000274088961469 11.99994233389954 0  5.00028009376399 11.99982305049663 0  6.000223182014689 11.99987528445533 0  7.000154625160726 11.99992017210722 0  8.000078981001646 11.99996099717974 0  9 12 0  -9 14 0  -8.000133834664283 13.99995713773051 0  -7.000268255243704 13.99991241230297 0  -6.000404066422521 13.99986379968803 0  -5.000542648393781 13.99980896518736 0  -4.000544330268155 13.99993661878854 0  -3.000544008944255 14.00006598484165 0  -2.000357807930141 14.00004710434656 0  -1.000175240572697 14.00003666514767 0  5.815723737850656e-06 14.00003334221853 0  1.000187361396107 14.00003668749027 0  2.000371302197869 14.00004688501177 0  3.000559324691175 14.00006450784144 0  4.00056205015969 13.99993685711701 0  5.000562494689271 13.99981009898153 0  6.000417676806766 13.99986418576043 0  7.000276788418327 13.99991251803519 0  8.000137950991537 13.9999571555321 0  9 14 0  -9 16 0  -8.000189484369297 15.99996112718799 0  -7.000382814979801 15.9999209744385 0  -6.000584172375253 15.99987825021924 0  -5.000798443970607 15.9998316675593 0  -4.000806081652692 15.99993750918011 0  -3.000798145629256 16.00004272487623 0  -2.000520474601998 16.00002937254688 0  -1.000254426780073 16.00002113391455 0  6.155813572328137e-06 16.00001785813017 0  1.00026708772342 16.00001942547484 0  2.000534189020569 16.0000258141943 0  3.000813663618028 16.00003707002609 0  4.000822537880705 15.99993279931158 0  5.000815397290453 15.999828442537 0  6.000596406590585 15.99987611078677 0  7.000390719318354 15.99991964715139 0  8.000193358182818 15.99996048814312 0  9 16 0  -9 18 0  -8.000229734758689 17.99997023664947 0  -7.000465236926664 17.99993982380366 0  -6.000712574449694 17.99990813667044 0  -5.000978421670458 17.99987460714756 0  -4.000989536805718 17.99993700626142 0  -3.000978323352422 17.99999932040062 0  -2.000636699303909 17.9999911957703 0  -1.000311776081577 17.9999857612368 0  5.097421180364216e-06 17.9999830113844 0  1.000322157685977 17.99998288755061 0  2.000647629497209 17.99998528397902 0  3.000990123401565 17.99999002993454 0  4.001001957056506 17.99992966346049 0  5.00099114047597 17.99986950402159 0  6.000721871094323 17.99990456656322 0  7.00047131317921 17.99993755973671 0  8.000232734974427 17.99996913793214 0  9 18 0  -9 20 0  -8.000246900653579 19.99998194363424 0  -7.000500288230565 19.99996377034356 0  -6.000766890006992 19.99994539292506 0  -5.001053913844753 19.99992678490645 0  -4.00106624917692 19.99993613603106 0  -3.001053749639375 19.99994541593729 0  -2.000686176014906 19.99994226480165 0  -1.000336953151605 19.99993965628364 0  3.290781825452117e-06 19.99993766715166 0  1.00034360519072 19.99993627486948 0  2.000693033347132 19.99993536126271 0  3.00106092970671 19.99993470610694 0  4.001073608269293 19.99992781746179 0  5.001061394683191 19.99992107605147 0  6.000772438549665 19.99994130018424 0  7.000503955342293 19.99996113231375 0  8.000248724081432 19.99998065174466 0  8.99999999999762 20.0000000000042 0  -9 22 0  -8.000238105619825 21.99999411779751 0  -7.000482454618016 21.99998853294617 0  -6.000739470395476 21.99998357105588 0  -5.001015935459275 21.99997961464124 0  -4.001027731903259 21.99993488586753 0  -3.001015833319776 21.99989009954913 0  -2.000662304159363 21.99989116461268 0  -1.000326240055641 21.99989107537335 0  1.202184850489101e-06 21.99988993713614 0  1.000328623298041 21.99988774885456 0  2.000664618684676 21.99988440553469 0  3.001018015621171 21.99987969695326 0  4.001029783210191 21.99992686190987 0  5.001017938188609 21.99997412887264 0  6.000741066873934 21.9999796010894 0  7.000483561098944 21.99998595503251 0  8.000238670969971 21.99999284947379 0  9 22 0  -9 24 0  -8.000204324067276 24.00000510231809 0  -7.000413926117096 24.00001080334233 0  -6.000634207453728 24.00001772668779 0  -5.000870824177992 24.00002654580238 0  -4.000880806103733 23.99993342315662 0  -3.000870858570668 23.99984026864172 0  -2.000568623804143 23.99984467871255 0  -1.000281063410889 23.99984668772788 0  -8.006307218088875e-07 23.99984640456575 0  1.000279370889479 23.99984384006621 0  2.00056665260081 23.99983890751007 0  3.000868406560007 23.99983142264351 0  4.000877988313057 23.99992664417065 0  5.000867851344825 24.00002194674806 0  6.000632188499015 24.00001437438346 0  7.000412677808235 24.00000861523338 0  8.000203729379121 24.00000402240094 0  9 24 0  -9 26 0  -8.000149422430205 26.00001369207076 0  -7.000302647132598 26.00002818434155 0  -6.000463556980306 26.00004429887701 0  -5.000636193642589 26.00006290134103 0  -4.000643470467765 25.99993189178002 0  -3.000636426051973 25.99980087119475 0  -2.000416294754003 25.99980779289996 0  -1.00020671867987 25.99981146376747 0  -2.436322267387481e-06 25.99981199226396 0  1.000201704433495 25.99980939826064 0  2.00041085162932 25.99980361318907 0  3.000630251953205 25.99979448051634 0  4.00063677047152 25.99992701879907 0  5.000629268008422 26.00005961678071 0  6.000458657912259 26.0000418945897 0  7.0002995191558 26.00002661008738 0  8.000147899361062 26.00001291360947 0  9 26 0  -9 28 0  -8.000079295585719 28.00001908118342 0  -7.000160597453244 28.00003907629923 0  -6.000245952083433 28.00006091916925 0  -5.000337482736122 28.00008558311111 0  -4.000341497404086 27.9999304158276 0  -3.000337961161106 27.99977525727671 0  -2.000221792564381 27.9997839053999 0  -1.00011122068838 27.99978880427387 0  -3.505203821807715e-06 27.99979006466915 0  1.000104038674935 27.99978771548067 0  2.000214090880225 27.99978170394256 0  3.000329376693845 27.99977189630803 0  4.00033229397539 27.99992786320262 0  5.000328014966974 28.00008387293246 0  6.000239197431482 28.00005966426864 0  7.000156256847733 28.00003825313926 0  8.000077173504145 28.00
[...]
<PointData  Vectors="f_42"> 
<DataArray  type="Float64"  Name="f_42"  NumberOfComponents="3" format="ascii">0.0000000000000000e+00 0.0000000000000000e+00 0.0000000000000000e+00  0.0000000000000000e+00 0.0000000000000000e+00 0.0000000000000000e+00  0.0000000000000000e+00 0.0000000000000000e+00 0.0000000000000000e+00  0.0000000000000000e+00 0.0000000000000000e+00 0.0000000000000000e+00  0.0000000000000000e+00 0.0000000000000000e+00 0.0000000000000000e+00  0.0000000000000000e+00 0.0000000000000000e+00 0.0000000000000000e+00  0.0000000000000000e+00 0.0000000000000000e+00 0.0000000000000000e+00  0.0000000000000000e+00 0.0000000000000000e+00 0.0000000000000000e+00  0.0000000000000000e+00 0.0000000000000000e+00 0.0000000000000000e+00  0.0000000000000000e+00 0.0000000000000000e+00 0.0000000000000000e+00  0.0000000000000000e+00 0.0000000000000000e+00 0.0000000000000000e+00  0.0000000000000000e+00 0.0000000000000000e+00 0.0000000000000000e+00  0.0000000000000000e+00 0.0000000000000000e+00 0.0000000000000000e+00  0.0000000000000000e+00 0.0000000000000000e+00 0.0000000000000000e+00  0.0000000000000000e+00 0.0000000000000000e+00 0.0000000000000000e+00  0.0000000000000000e+00 0.0000000000000000e+00 0.0000000000000000e+00  0.0000000000000000e+00 0.0000000000000000e+00 0.0000000000000000e+00  0.0000000000000000e+00 0.0000000000000000e+00 0.0000000000000000e+00  0.0000000000000000e+00 0.0000000000000000e+00 0.0000000000000000e+00  0.0000000000000000e+00 0.0000000000000000e+00 0.0000000000000000e+00  -1.5755599518096668e-06 -1.8746339672616363e-06 0.0000000000000000e+00  -3.3385071666427953e-06 -3.5821363197999584e-06 0.0000000000000000e+00  -5.6399609122021409e-06 -4.9945185908536492e-06 0.0000000000000000e+00  -9.2081797073492422e-06 -6.0807134373239804e-06 0.0000000000000000e+00  -6.1729350289802664e-06 -4.3697366524994888e-06 0.0000000000000000e+00  -2.8997571232419560e-06 -3.0851192072375379e-06 0.0000000000000000e+00  -1.0747570546822363e-06 -2.0271549005839341e-06 0.0000000000000000e+00  -2.9594515790797168e-07 -1.2021025653196368e-06 0.0000000000000000e+00  -1.6627247425318415e-07 -8.4232120455608138e-07 0.0000000000000000e+00  -9.0803642933780525e-08 -1.0748531989147587e-06 0.0000000000000000e+00  5.0139005254089745e-07 -1.8454836391345999e-06 0.0000000000000000e+00  2.0095956345311827e-06 -2.8261078366195787e-06 0.0000000000000000e+00  4.5846077520676308e-06 -3.9483538897094851e-06 0.0000000000000000e+00  8.1704456209609111e-06 -4.5847451182734873e-06 0.0000000000000000e+00  4.9578603012488967e-06 -4.1631022697456097e-06 0.0000000000000000e+00  2.9198089239344796e-06 -3.1186206606818002e-06 0.0000000000000000e+00  1.3757534937158481e-06 -1.6628287934863027e-06 0.0000000000000000e+00  0.0000000000000000e+00 0.0000000000000000e+00 0.0000000000000000e+00  0.0000000000000000e+00 0.0000000000000000e+00 0.0000000000000000e+00  -2.4015637506433334e-06 -4.4177763517113795e-06 0.0000000000000000e+00  -4.5229843594345214e-06 -8.3447383904706814e-06 0.0000000000000000e+00  -6.2128516785059054e-06 -1.1293778427249060e-05 0.0000000000000000e+00  -7.5278888310843291e-06 -1.2785338243304004e-05 0.0000000000000000e+00  -3.4936328419182747e-06 -1.2153929734112056e-05 0.0000000000000000e+00  -5.4511539320754490e-07 -9.0617743224303834e-06 0.0000000000000000e+00  7.5590655096897634e-07 -5.0481829433838167e-06 0.0000000000000000e+00  6.2534301181908068e-07 -1.8611009169294344e-06 0.0000000000000000e+00  -3.1167044531023959e-07 -5.6507842018572612e-07 0.0000000000000000e+00  -1.2924247970853809e-06 -1.5141386397109390e-06 0.0000000000000000e+00  -1.5626954201589891e-06 -4.1627781643885215e-06 0.0000000000000000e+00  -3.7937315095143096e-07 -7.7829772479803593e-06 0.0000000000000000e+00  2.4472481973188625e-06 -1.1432804867623725e-05 0.0000000000000000e+00  6.2726055050426183e-06 -1.2748115420327098e-05 0.0000000000000000e+00  5.2175666334945548e-06 -1.0817548222249311e-05 0.0000000000000000e+00  3.8636234920236109e-06 -7.8824638654099098e-06 0.0000000000000000e+00  2.0782892262160067e-06 -4.1537863626784812e-06 0.0000000000000000e+00  0.0000000000000000e+00 0.0000000000000000e+00 0.0000000000000000e+00  0.0000000000000000e+00 0.0000000000000000e+00 0.0000000000000000e+00  -4.3481228094632186e-06 -8.9241047929794134e-06 0.0000000000000000e+00  -7.4336772629825781e-06 -1.7018965228974800e-05 0.0000000000000000e+00  -8.2850745063837484e-06 -2.3422904295810532e-05 0.0000000000000000e+00  -6.6107368019072528e-06 -2.7290146115919265e-05 0.0000000000000000e+00  6.0109044234363630e-07 -2.2934032410388759e-05 0.0000000000000000e+00  4.2223123502841706e-06 -1.3789119565209197e-05 0.0000000000000000e+00  3.7188560023184966e-06 -4.2046181535002530e-06 0.0000000000000000e+00  1.4474713780455740e-06 1.1659294418181039e-06 0.0000000000000000e+00  -8.7000845442193993e-07 2.3091887341162107e-06 0.0000000000000000e+00  -2.8673038079534749e-06 5.8936157775281227e-07 0.0000000000000000e+00  -4.1966298598291188e-06 -4.1556152071769184e-06 0.0000000000000000e+00  -4.2921932285177088e-06 -1.2105951623159852e-05 0.0000000000000000e+00  -2.1385153503184653e-06 -2.0330582434153959e-05 0.0000000000000000e+00  4.0293289930564828e-06 -2.4323024910833156e-05 0.0000000000000000e+00  6.6728986788016936e-06 -2.1490009440681942e-05 0.0000000000000000e+00  6.5329903130754900e-06 -1.5820614175829119e-05 0.0000000000000000e+00  3.9526202409216123e-06 -8.3451140234522695e-06 0.0000000000000000e+00  0.0000000000000000e+00 0.0000000000000000e+00 0.0000000000000000e+00  0.0000000000000000e+00 0.0000000000000000e+00 0.0000000000000000e+00  -1.1345171789698021e-05 -1.6747115327261725e-05 0.0000000000000000e+00  -1.9280908540830197e-05 -3.2456565291583382e-05 0.0000000000000000e+00  -2.0460207963380898e-05 -4.5698519597588976e-05 0.0000000000000000e+00  -1.1909728409379196e-05 -5.4077834259235733e-05 0.0000000000000000e+00  1.1913156375200666e-06 -3.4196016936882922e-05 0.0000000000000000e+00  -4.4742921512844650e-07 -1.0816187607589233e-05 0.0000000000000000e+00  -4.5596661479958497e-06 7.3626412794083384e-07 0.0000000000000000e+00  -4.3621710560397228e-06 2.2952599816357603e-06 0.0000000000000000e+00  -9.9034714035525004e-07 2.7600960014636932e-06 0.0000000000000000e+00  1.7218008157835521e-06 3.7669803077134736e-06 0.0000000000000000e+00  1.4128102190721663e-06 -1.0104443997529529e-06 0.0000000000000000e+00  -3.3576333242978130e-06 -9.3272535756517117e-06 0.0000000000000000e+00  -4.2967706763112558e-06 -2.9158853664975088e-05 0.0000000000000000e+00  8.7122720305978231e-06 -5.1357508527302072e-05 0.0000000000000000e+00  1.9261957383558835e-05 -4.3507587235747329e-05 0.0000000000000000e+00  1.8963981401315121e-05 -3.0982868469971532e-05 0.0000000000000000e+00  1.1315750505026518e-05 -1.6014648703508736e-05 0.0000000000000000e+00  0.0000000000000000e+00 0.0000000000000000e+00 0.0000000000000000e+00  0.0000000000000000e+00 0.0000000000000000e+00 0.0000000000000000e+00  -3.1978611965233335e-05 -2.8719674898473635e-05 0.0000000000000000e+00  -5.8152418190235013e-05 -5.7762449363372454e-05 0.0000000000000000e+00  -7.1553063450547182e-05 -8.7421904621391768e-05 0.0000000000000000e+00  -6.2401767748957414e-05 -1.1792647264237825e-04 0.0000000000000000e+00  -4.2257549134077808e-05 -5.5258869428928806e-05 0.0000000000000000e+00  -4.4177396884801148e-05 -1.1234110396790877e-06 0.0000000000000000e+00  -3.4817455582599758e-05 -9.5349084804899182e-06 0.0000000000000000e+00  -1.6535808893371525e-05 -1.2231685369262940e-05 0.0000000000000000e+00  -2.8080999372052619e-06 -1.2875977939817223e-05 0.0000000000000000e+00  1.0799986607138644e-05 -1.2893017618390809e-05 0.0000000000000000e+00  2.8493214425246256e-05 -1.3450618148426295e-05 0.0000000000000000e+00  4.4845570047534907e-05 4.6948822226648826e-06 0.0000000000000000e+00  4.4287211277801282e-05 -4.6129629349098048e-05 0.0000000000000000e+00  6.6688799198076190e-05 -1.1258062606918617e-04 0.0000000000000000e+00  7.5238921455680598e-05 -8.4222203149015101e-05 0.0000000000000000e+00  6.0794260856445623e-05 -5.5917896251216106e-05 0.0000000000000000e+00  3.3347794205026496e-05 -2.7869094703251487e-05 0.0000000000000000e+00  0.0000000000000000e+00 0.0000000000000000e+00 0.0000000000000000e+00  0.0000000000000000e+00 0.0000000000000000e+00 0.0000000000000000e+00  -7.5825280159563287e-05 -3.9397586219759566e-05 0.0000000000000000e+00  -1.4810687529644056e-04 -8.0597870701332703e-05 0.0000000000000000e+00  -2.1283522283473464e-04 -1.2575850720912158e-04 0.0000000000000000e+00  -2.6506820623274310e-04 -1.7789132754005666e-04 0.0000000000000000e+00  -2.5529467066150884e-04 -6.6110783723085035e-05 0.0000000000000000e+00  -2.6344038860311446e-04 4.4576584238418598e-05 0.0000000000000000e+00  -1.8064779759193792e-04 3.1083686191769720e-05 0.0000000000000000e+00  -9.0028409089449395e-05 2.3741462186165884e-05 0.0000000000000000e+00  3.5183335062144019e-06 2.2162617527421202e-05 0.0000000000000000e+00  9.8072912124377214e-05 2.6549440622065048e-05 0.0000000000000000e+00  1.9212777448205379e-04 3.8263490823894734e-05 0.0000000000000000e+00  2.8230568642352425e-04 6.0752336539206669e-05 0.0000000000000000e+00  2.7408896147054795e-04 -5.7666100453113004e-05 0.0000000000000000e+00  2.8009376398881359e-04 -1.7694950336394287e-04 0.0000000000000000e+00  2.2318201468971317e-04 -1.2471554467061158e-04 0.0000000000000000e+00  1.5462516072706114e-04 -7.9827892779142626e-05 0.0000000000000000e+00  7.8981001644800041e-05 -3.9002820259690551e-05 0.0000000000000000e+00  0.0000000000000000e+00 0.0000000000000000e+00 0.0000000000000000e+00  0.0000000000000000e+00 0.0000000000000000e+00 0.0000000000000000e+00  -1.3383466428895657e-04 -4.2862269490058101e-05 0.0000000000000000e+00  -2.6825524370343228e-04 -8.7587697036276544e-05 0.0000000000000000e+00  -4.0406642252145989e-04 -1.3620031197124002e-04 0.0000000000000000e+00  -5.4264839378153989e-04 -1.9103481263939976e-04 0.0000000000000000e+00  -5.4433026815523303e-04 -6.3381211459080750e-05 0.0000000000000000e+00  -5.4400894425327107e-04 6.5984841645303483e-05 0.0000000000000000e+00  -3.5780793014321676e-04 4.7104346555319979e-05 0.0000000000000000e+00  -1.7524057269624143e-04 3.6665147665542854e-05 0.0000000000000000e+00  5.8157237378506558e-06 3.3342218528844814e-05 0.0000000000000000e+00  1.8736139610651736e-04 3.6687490272309163e-05 0.0000000000000000e+00  3.7130219786900694e-04 4.6885011763129088e-05 0.0000000000000000e+00  5.5932469117538650e-04 6.4507841440569603e-05 0.0000000000000000e+00  5.6205015968829614e-04 -6.3142882992264131e-05 0.0000000000000000e+00  5.6249468927182535e-04 -1.8990101846528561e-04 0.0000000000000000e+00  4.1767680676897911e-04 -1.3581423956439873e-04 0.0000000000000000e+00  2.7678841832828974e-04 -8.7481964808353352e-05 0.0000000000000000e+00  1.3795099153333473e-04 -4.2844467899187960e-05 0.0000000000000000e+00  0.0000000000000000e+00 0.0000000000000000e+00 0.0000000000000000e+00  0.0000000000000000e+00 0.0000000000000000e+00 0.0000000000000000e+00  -1.8948436929800818e-04 -3.8872812014902255e-05 0.0000000000000000e+00  -3.8281497979923056e-04 -7.9025561500800225e-05 0.0000000000000000e+00  -5.8417237525178092e-04 -1.2174978075661202e-04 0.0000000000000000e+00  -7.9844397060697514e-04 -1.6833244070425790e-04 0.0000000000000000e+00  -8.0608165269195381e-04 -6.2490819884419396e-05 0.0000000000000000e+00  -7.9814562925626764e-04 4.2724876223454660e-05 0.0000000000000000e+00  -5.2047460199684326e-04 2.9372546888257891e-05 0.0000000000000000e+00  -2.5442678007258046e-04 2.1133914541531696e-05 0.0000000000000000e+00  6.1558135723281373e-06 1.7858130166299608e-05 0.0000000000000000e+00  2.6708772342003682e-04 1.9425474827302942e-05 0.0000000000000000e+00  5.3418902056850850e-04 2.5814194295841095e-05 0.0000000000000000e+00  8.1366361802977000e-04 3.7070026088050932e-05 0.0000000000000000e+00  8.2253788070373816e-04 -6.7200688419590939e-05 0.0000000000000000e+00  8.1539729045493770e-04 -1.7155746300584929e-04 0.0000000000000000e+00  5.9640659058598773e-04 -1.2388921323618619e-04 0.0000000000000000e+00  3.9071931835366985e-04 -8.0352848616571429e-05 0.0000000000000000e+00  1.9335818282318102e-04 -3.9511856875510971e-05 0.0000000000000000e+00  0.0000000000000000e+00 0.0000000000000000e+00 0.0000000000000000e+00  0.0000000000000000e+00 0.0000000000000000e+00 0.0000000000000000e+00  -2.2973475867945267e-04 -2.9763350521960754e-05 0.0000000000000000e+00  -4.6523692666465658e-04 -6.0176196335958099e-05 0.0000000000000000e+00  -7.1257444969370350e-04 -9.1863329572070302e-05 0.0000000000000000e+00  -9.7842167046014328e-04 -1.2539285243485284e-04 0.0000000000000000e+00  -9.8953680571993896e-04 -6.2993738586918918e-05 0.0000000000000000e+00  -9.7832335242256175e-04 -6.7959938365862085e-07 0.0000000000000000e+00  -6.3669930390868219e-04 -8.8042297032433621e-06 0.0000000000000000e+00  -3.1177608157855337e-04 -1.4238763207654712e-05 0.0000000000000000e+00  5.0974211803642164e-06 -1.6988615597978016e-05 0.0000000000000000e+00  3.2215768597699304e-04 -1.7112449385445314e-05 0.0000000000000000e+00  6.4762949720891146e-04 -1.4716020981165448e-05 0.0000000000000000e+00  9.9012340156316605e-04 -9.9700654732278316e-06 0.0000000000000000e+00  1.0019570565045620e-03 -7.0336539509792661e-05 0.0000000000000000e+00  9.9114047597181616e-04 -1.3049597841907292e-04 0.0000000000000000e+00  7.2187109432276988e-04 -9.5433436793055751e-05 0.0000000000000000e+00  4.7131317921116891e-04 -6.2440263293304251e-05 0.0000000000000000e+00  2.3273497442504620e-04 -3.0862067849854536e-05 0.0000000000000000e+00  0.0000000000000000e+00 0.0000000000000000e+00 0.0000000000000000e+00  0.0000000000000000e+00 0.0000000000000000e+00 0.0000000000000000e+00  -2.4690065357475111e-04 -1.8056365762347264e-05 0.0000000000000000e+00  -5.0028823056475673e-04 -3.6229656435498482e-05 0.0000000000000000e+00  -7.6689000699425717e-04 -5.4607074926642772e-05 0.0000000000000000e+00  -1.0539138447534372e-03 -7.3215093554392270e-05 0.0000000000000000e+00  -1.0662491769185736e-03 -6.3863968932669458e-05 0.0000000000000000e+00  -1.0537496393747891e-03 -5.4584062700997509e-05 0.0000000000000000e+00  -6.8617601490570204e-04 -5.7735198338161177e-05 0.0000000000000000e+00  -3.3695315160492411e-04 -6.0343716352353292e-05 0.0000000000000000e+00  3.2907818254521173e-06 -6.2332848331578744e-05 0.0000000000000000e+00  3.4360519071944059e-04 -6.3725130512938270e-05 0.0000000000000000e+00  6.9303334713274889e-04 -6.4638737303569530e-05 0.0000000000000000e+00  1.0609297067102146e-03 -6.5293893066088922e-05 0.0000000000000000e+00  1.0736082692948956e-03 -7.2182538217034913e-05 0.0000000000000000e+00  1.0613946831914787e-03 -7.8923948535010739e-05 0.0000000000000000e+00  7.7243854966499068e-04 -5.8699815758826505e-05 0.0000000000000000e+00  5.0395534229175369e-04 -3.8867686260586992e-05 0.0000000000000000e+00  2.4872408143102157e-04 -1.9348255340112605e-05 0.0000000000000000e+00  -2.3831223948871262e-12 4.2012081380633081e-12 0.0000000000000000e+00  0.0000000000000000e+00 0.0000000000000000e+00 0.0000000000000000e+00  -2.3810561982287140e-04 -5.8822024903123990e-06 0.0000000000000000e+00  -4.8245461801674965e-04 -1.1467053836246468e-05 0.0000000000000000e+00  -7.3947039547614163e-04 -1.6428944111310322e-05 0.0000000000000000e+00  -1.0159354592744942e-03 -2.0385358771088114e-05 0.0000000000000000e+00  -1.0277319032597502e-03 -6.5114132461608170e-05 0.0000000000000000e+00  -1.0158333197756797e-03 -1.0990045087153298e-04 0.0000000000000000e+00  -6.6230415936222313e-04 -1.0883538731637499e-04 0.0000000000000000e+00  -3.2624005564116452e-04 -1.0892462663643082e-04 0.0000000000000000e+00  1.2021848504891005e-06 -1.1006286386531128e-04 0.0000000000000000e+00  3.2862329804136790e-04 -1.1225114543498329e-04 0.0000000000000000e+00  6.6461868467547686e-04 -1.1559446530554012e-04 0.0000000000000000e+00  1.0180156211703610e-03 -1.2030304673379337e-04 0.0000000000000000e+00  1.0297832101928701e-03 -7.3138090137912451e-05 0.0000000000000000e+00  1.0179381886093212e-03 -2.5871127361595822e-05 0.0000000000000000e+00  7.4106687393461594e-04 -2.0398910602714130e-05 0.0000000000000000e+00  4.8356109894313193e-04 -1.4044967474179786e-05 0.0000000000000000e+00  2.3867096997208927e-04 -7.1505262096254263e-06 0.0000000000000000e+00  0.0000000000000000e+00 0.0000000000000000e+00 0.0000000000000000e+00  0.0000000000000000e+00 0.0000000000000000e+00 0.0000000000000000e+00  -2.0432406727202747e-04 5.1023180986583374e-06 0.0000000000000000e+00  -4.1392611709467701e-04 1.0803342334164452e-05 0.0000000000000000e+00  -6.3420745373113157e-04 1.7726687796546868e-05 0.0000000000000000e+00  -8.7082417799019287e-04 2.6545802384490364e-05 0.0000000000000000e+00  -8.8080610373390627e-04 -6.6576843376453277e-05 0.0000000000000000e+00  -8.7085857066730200e-04 -1.5973135828532787e-04 0.0000000000000000e+00  -5.6862380414285515e-04 -1.5532128743996391e-04 0.0000000000000000e+00  -2.8106341088844573e-04 -1.5331227211857595e-04 0.0000000000000000e+00  -8.0063072180888752e-07 -1.5359543425036361e-04 0.0000000000000000e+00  2.7937088947863439e-04 -1.5615993379460455e-04 0.0000000000000000e+00  5.6665260081024222e-04 -1.6109248993311794e-04 0.0000000000000000e+00  8.6840656000612357e-04 -1.6857735649017462e-04 0.0000000000000000e+00  8.7798831305446051e-04 -7.3355829343168906e-05 0.0000000000000000e+00  8.6785134482649797e-04 2.1946748045486119e-05 0.0000000000000000e+00  6.3218849901727596e-04 1.4374383457494918e-05 0.0000000000000000e+00  4.1267780823441198e-04 8.6152333782092153e-06 0.0000000000000000e+00  2.0372937912189180e-04 4.0224009518182266e-06 0.0000000000000000e+00  0.0000000000000000e+00 0.0000000000000000e+00 0.0000000000000000e+00  0.0000000000000000e+00 0.0000000000000000e+00 0.0000000000000000e+00  -1.4942243021143570e-04 1.3692070753614448e-05 0.0000000000000000e+00  -3.0264713259948458e-04 2.8184341554319288e-05 0.0000000000000000e+00  -4.6355698030743837e-04 4.4298876999413393e-05 0.0000000000000000e+00  -6.3619364258828582e-04 6.2901341034046231e-05 0.0000000000000000e+00  -6.4347046776613739e-04 -6.8108219972411318e-05 0.0000000000000000e+00  -6.3642605197125916e-04 -1.9912880524827319e-04 0.0000000000000000e+00  -4.1629475400277829e-04 -1.9220710002731544e-04 0.0000000000000000e+00  -2.0671867986887460e-04 -1.8853623253278499e-04 0.0000000000000000e+00  -2.4363222673874810e-06 -1.8800773603728021e-04 0.0000000000000000e+00  2.0170443349437284e-04 -1.9060173934803685e-04 0.0000000000000000e+00  4.1085162931950813e-04 -1.9638681092710834e-04 0.0000000000000000e+00  6.3025195320427102e-04 -2.0551948366506574e-04 0.0000000000000000e+00  6.3677047152091025e-04 -7.2981200930247048e-05 0.0000000000000000e+00  6.2926800841793930e-04 5.9616780710525294e-05 0.0000000000000000e+00  4.5865791225710830e-04 4.1894589697159100e-05 0.0000000000000000e+00  2.9951915580014697e-04 2.6610087378517143e-05 0.0000000000000000e+00  1.4789936106555576e-04 1.2913609475460167e-05 0.0000000000000000e+00  0.0000000000000000e+00 0.0000000000000000e+00 0.0000000000000000e+00  0.0000000000000000e+00 0.0000000000000000e+00 0.0000000000000000e+00  -7.9295585715635476e-05 1.9081183424041383e-05 0.0000000000000000e+00  -1.6059745324619704e-04 3.9076299213370155e-05 0.0000000000000000e+00  -2.4595208343309184e-04 6.0919169257529254e-05 0.0000000000000000e+00  -3.3748273612420934e-04 8.5583111107982241e-05 0.0000000000000000e+00  -3.4149740408620396e-04 -6.9584172394876278e-05 0.0000000000000000e+00  -3.3796116110464982e-04 -2.2474272329320500e-04 0.0000000000000000e+00  -2.2179256438078422e-04 -2.1609460011383513e-04 0.0000000000000000e+00  -1.1122068837993047e-04 -2.1119572613280990e-04 0.0000000000000000e+00  -3.5052038218077155e-06 -2.0993533085043666e-04 0.0000000000000000e+00  1.0403867493484633e-04 -2.1228451932517450e-04 0.0000000000000000e+00  2.1409088022555464e-04 -2.1829605743337870e-04 0.0000000000000000e+00  3.2937669384689643e-04 -2.2810369197986141e-04 0.0000000000000000e+00  3.3229397538935359e-04 -7.2136797378236249e-05 0.00000