<?xml version="1.0"?>
<VTKFile type="UnstructuredGrid"  version="0.1"  >
<UnstructuredGrid>
<Piece  NumberOfPoints="589" NumberOfCells="1080">
<Points>
<DataArray  type="Float64"  NumberOfComponents="3"  format="ascii">-9 0 0  -8 0 0  -7 0 0  -6 0 0  -5 0 0  -4 0 0  -3 0 0  -2 0 0  -1 0 0  0 0 0  1 0 0  2 0 0  3 0 0  4 0 0  5 0 0  6 0 0  7 0 0  8 0 0  9 0 0  -9 2 0  -8.000008244090534 1.99998772275549 0  -7.000017309030867 1.999976939922118 0  -6.00002909928312 1.999968862637007 0  -5.000047946833851 1.999964014654816 0  -4.000028614685518 1.999973157920865 0  -3.000008674057111 1.999981730794973 0  -1.999998865124679 1.999989732657982 0  -0.9999970551300639 1.999996052093613 0  -2.368482433759541e-07 1.999998819442869 0  0.999996228465065 1.999996896686944 0  1.99999684596477 1.999990742821213 0  3.000004651664461 1.999983183010683 0  4.000020604466565 1.999975063565157 0  5.000043673656793 1.999971670450688 0  6.000026391384413 1.999972948454224 0  7.000015699765405 1.999979172326582 0  8.000007494644425 1.999988736041218 0  9 2 0  -9 4 0  -8.000013204578435 3.999969468723506 0  -7.000023716849102 3.999943058290975 0  -6.000029969260951 3.999924808409083 0  -5.000032300778809 3.999918578472721 0  -4.000004250102697 3.99992277111349 0  -2.999985330773271 3.999946757651693 0  -1.999980178830498 3.999977989946634 0  -0.9999869750743514 4.000003100715274 0  -2.834070059081136e-07 4.000013217585118 0  0.9999861223514904 4.000005297427929 0  1.999978367081091 3.999983908508912 0  2.999982578636279 3.999954941607471 0  4.00000061180217 3.999925792721919 0  5.000027954563747 3.999915949407622 0  6.000026419924654 3.999926114008844 0  7.000021453289007 3.99994498621787 0  8.000012147007508 3.999970672073327 0  9 4 0  -9 6 0  -8.000028933241747 5.999934735488553 0  -7.000047164037639 5.999876538310534 0  -6.000046522853035 5.999832678095733 0  -5.000024660077182 5.999810135151201 0  -3.999970109051908 5.999845609408031 0  -2.999945156345018 5.999919779193362 0  -1.999954616633245 5.999997533403953 0  -0.999978647173112 6.000040784517238 0  -2.984271699789152e-06 6.000049479935788 0  0.9999751639901731 6.000035430785077 0  1.999958596422105 5.999996596074443 0  2.999952579187676 5.999931003422572 0  3.999965721368388 5.999862973844954 0  5.000012376558106 5.999829253345495 0  6.000040176429198 5.999844452708968 0  7.000044564269637 5.999883549651483 0  8.00002816060128 5.999938043756537 0  9 6 0  -9 8 0  -8.000087459740227 7.999871752093465 0  -7.000146091905361 7.999752691102307 0  -6.000147958627645 7.999655299059782 0  -5.000069106964073 7.999600161629512 0  -3.999963894191758 7.999763971284657 0  -2.9999829151907 7.999956444615672 0  -2.000022020145481 8.000050313934294 0  -1.000025098792801 8.000061131036993 0  -1.393760081886617e-06 8.000064295314843 0  1.000016394061503 8.000073710099723 0  2.000009355651517 8.000034418340791 0  2.999963880315691 7.99996746645439 0  3.999948752262217 7.999801860988152 0  5.000052391999868 7.999615009043159 0  6.000147566414812 7.999667229545995 0  7.000150824393919 7.999760546238729 0  8.000091187391018 7.999875583405792 0  9 8 0  -9 10 0  -8.000261200155414 9.999772098773677 0  -7.000471977786734 9.999542288323626 0  -6.000572169191043 9.999309100006364 0  -5.000477924867738 9.999072118567332 0  -4.000311443795237 9.999600367283271 0  -3.000338053909077 10.00005460598176 0  -2.000269887229675 9.999976744171997 0  -1.000123240225559 9.999951752519557 0  -1.504401047647826e-05 9.99994564964433 0  1.0000923319147 9.999946083387609 0  2.000235194676383 9.999943101790146 0  3.000361200553918 10.00010651901089 0  4.000345820304655 9.999674338908839 0  5.000535421094245 9.99910415812921 0  6.000622414751357 9.999325781835498 0  7.000508533505471 9.999550750569261 0  8.00028032993546 9.999775662247288 0  9 10 0  -9 12 0  -8.000636184959404 11.99968024791778 0  -7.001239480976688 11.9993456761965 0  -6.001772716450756 11.99897855955961 0  -5.002189754759103 11.99855418279882 0  -4.002105055706036 11.99951619548995 0  -3.002181595262567 12.00046854034383 0  -2.001494678484953 12.00035352973973 0  -1.000731832171113 12.00029147138719 0  5.959207347587612e-05 12.00027968824337 0  1.000858599165768 12.00032018521941 0  2.001647462337826 12.00042463966308 0  3.002390781254547 12.00062226745887 0  4.002308716364086 11.9995859383057 0  5.002363194121794 11.99854099116731 0  6.001899742463237 11.99897132276435 0  7.001323020912759 11.99934140978002 0  8.000677664891631 11.9996781773397 0  9 12 0  -9 14 0  -8.001141807041094 13.99964786243004 0  -7.002285756197126 13.99927956703676 0  -6.003435537720516 13.99887753172158 0  -5.004598768199864 13.99842138111244 0  -4.004611243718407 13.9995441775237 0  -3.004617764541451 14.00068119150862 0  -2.003024922832179 14.00051885232672 0  -1.001455491132579 14.00043039492725 0  0.0001041242798980943 14.00040488810775 0  1.001666806632494 14.00043880432562 0  2.003244488722434 14.0005339847342 0  3.004846600255633 14.00069559937876 0  4.004859065523358 13.99954468755658 0  5.004866025304183 13.99840089522829 0  6.003627908316496 13.99885857583174 0  7.002410732993876 13.99926578571768 0  8.001203416011782 13.99964071249217 0  9 14 0  -9 16 0  -8.001637609347288 15.99968023217517 0  -7.003306640749654 15.99934868016617 0  -6.005041245003946 15.9989933600812 0  -5.006881115535839 15.99860207592516 0  -4.006947020211904 15.99955790590067 0  -3.006884824129651 16.00050862519571 0  -2.004464775813453 16.00038965726317 0  -1.002141302465928 16.00031832975062 0  0.0001364554055223836 16.00029313127655 0  1.002416546006947 16.00031309147025 0  2.004747016852018 16.00037831687041 0  3.00717898673696 16.00048974639598 0  4.007248560577864 15.99951429808069 0  5.007187640578183 15.99853809810633 0  6.005268520969553 15.99894821075221 0  7.003456715801082 15.99931964354628 0  8.001712192334654 15.99966598882384 0  9 16 0  -9 18 0  -8.00200640223094 17.99975977063137 0  -7.004062874153643 17.99951299545447 0  -6.006222090098784 17.99925325423346 0  -5.008541895421025 17.99897440081094 0  -4.008641029533223 17.99956074098616 0  -3.008545466250736 18.00014630307135 0  -2.005522488655874 18.0000707275203 0  -1.002646192750126 18.00002260707233 0  0.000159392910378038 18.00000158922487 0  1.002966551493303 18.00000714874286 0  2.00584746319937 18.00003862817827 0  3.008877745177322 18.00009509413263 0  4.008978852242154 17.99949171538693 0  5.008882535340945 17.99889009730277 0  6.006475554509144 17.99919288440002 0  7.004230856152447 17.99947404799165 0  8.002090091182938 17.9997406732381 0  9 18 0  -9 20 0  -8.00217369728537 19.99986547133856 0  -7.004405717581869 19.99972920597661 0  -6.006756605046937 19.99958966761352 0  -5.009291342720622 19.9994457112804 0  -4.00940422758492 19.99956050289786 0  -3.009292720041217 19.99967441250363 0  -2.005998162984409 19.99964258352741 0  -1.002870462774125 19.99961910125996 0  0.0001759573155725363 19.99960436349129 0  1.003223580630317 19.99959813158803 0  2.006354856978964 19.99959955309426 0  3.009655274473239 19.99960710746391 0  4.009769092203709 19.99948055764429 0  5.009656780799102 19.99935518394243 0  6.00702901837711 19.9995241407527 0  7.004586527300728 19.99968664790419 0  8.002263861541216 19.99984452995335 0  8.999999999991379 19.9999999999934 0  -9 22 0  -8.002106573608954 21.99997809525057 0  -7.004270693065384 21.99995850272807 0  -6.006551702062938 21.99994375690754 0  -5.00901252123648 21.99993684109745 0  -4.009122907063905 21.9995558297012 0  -3.009013458425998 21.99917381113553 0  -2.005811160346667 21.99918125156421 0  -1.002771847150321 21.9991808362063 0  0.0001877109609169657 21.99917333355584 0  1.003148234464607 21.99915870313372 0  2.006190429980083 21.9991361110041 0  3.009397488700232 21.99910391519444 0  4.009506862256161 21.99947702796672 0  5.009394871471042 21.99985076287512 0  6.006837134251791 21.99988117864007 0  7.004460335719015 21.99991772176616 0  8.002201195778195 21.9999579862062 0  9 22 0  -9 24 0  -8.001808107679258 24.00008147107901 0  -7.003665657724691 24.00016841152966 0  -6.005623478205002 24.00026651683762 0  -5.007735071058142 24.00038195077489 0  -4.007830198864198 23.99954689832908 0  -3.007736888463298 23.99871091449663 0  -2.004976829909602 23.99875115521037 0  -1.002356337113321 23.99877074386801 0  0.0001957179680563373 23.99877063683087 0  1.002748568010097 23.99875093057535 0  2.005371441004622 23.99871086562017 0  3.008135453292543 23.99864882105421 0  4.008226770369697 23.99947902335188 0  5.008128448282918 24.0003095308468 0  6.005917414315716 24.00021367487535 0  7.00386108070535 24.00013388530052 0  8.001905650606501 24.00006441898851 0  9 24 0  -9 26 0  -8.001310551537351 26.00016299328042 0  -7.002656932847432 26.00033367490586 0  -6.004075955779366 26.00051996088127 0  -5.005606187287502 26.00073023999192 0  -4.005676358877624 25.99953424355101 0  -3.005609742695589 25.99833750673139 0  -2.003588679416796 25.99840324751584 0  -1.001669089827571 25.99843901598149 0  0.0002007363003976042 25.99844591359386 0  1.002071224933318 25.99842415810948 0  2.003992798899316 25.99837308443451 0  3.006017159738188 25.99829114279501 0  4.006080401787226 25.99948463276464 0  5.006005886233761 26.0006782032304 0  6.004374846119427 26.00048190073151 0  7.002855759475212 26.00030876211016 0  8.001409825955328 26.00015067482935 0  9 26 0  -9 28 0  -8.000668141899338 28.00021378952741 0  -7.001354843594895 28.00043653766535 0  -6.002079226727583 28.00067743308351 0  -5.002861248186581 28.00094613227578 0  -4.002899827245774 27.99951902337981 0  -3.002866790960296 27.99809150463879 0  -2.001798988005763 27.9981747892354 0  -1.000784760614647 27.99822232554584 0  0.0002032979728567205 27.9982353483778 0  1.001191918647719 27.99821419288799 0  2.002207825724856 27.99815829464479 0  3.003278406757726 27.99806618862465 0  4.003307227770161 27.99949256163134 0  5.003263623379709 28.00091893332761 0  6.002380301110422 28.00065749712232 0  7.00155521274063 28.00042346696505 0  8.00076821
[...]
<PointData  Vectors="f_42"> 
<DataArray  type="Float64"  Name="f_42"  NumberOfComponents="3" format="ascii">0.0000000000000000e+00 0.0000000000000000e+00 0.0000000000000000e+00  0.0000000000000000e+00 0.0000000000000000e+00 0.0000000000000000e+00  0.0000000000000000e+00 0.0000000000000000e+00 0.0000000000000000e+00  0.0000000000000000e+00 0.0000000000000000e+00 0.0000000000000000e+00  0.0000000000000000e+00 0.0000000000000000e+00 0.0000000000000000e+00  0.0000000000000000e+00 0.0000000000000000e+00 0.0000000000000000e+00  0.0000000000000000e+00 0.0000000000000000e+00 0.0000000000000000e+00  0.0000000000000000e+00 0.0000000000000000e+00 0.0000000000000000e+00  0.0000000000000000e+00 0.0000000000000000e+00 0.0000000000000000e+00  0.0000000000000000e+00 0.0000000000000000e+00 0.0000000000000000e+00  0.0000000000000000e+00 0.0000000000000000e+00 0.0000000000000000e+00  0.0000000000000000e+00 0.0000000000000000e+00 0.0000000000000000e+00  0.0000000000000000e+00 0.0000000000000000e+00 0.0000000000000000e+00  0.0000000000000000e+00 0.0000000000000000e+00 0.0000000000000000e+00  0.0000000000000000e+00 0.0000000000000000e+00 0.0000000000000000e+00  0.0000000000000000e+00 0.0000000000000000e+00 0.0000000000000000e+00  0.0000000000000000e+00 0.0000000000000000e+00 0.0000000000000000e+00  0.0000000000000000e+00 0.0000000000000000e+00 0.0000000000000000e+00  0.0000000000000000e+00 0.0000000000000000e+00 0.0000000000000000e+00  0.0000000000000000e+00 0.0000000000000000e+00 0.0000000000000000e+00  -8.2440905425878224e-06 -1.2277244509519227e-05 0.0000000000000000e+00  -1.7309030863009905e-05 -2.3060077881782935e-05 0.0000000000000000e+00  -2.9099283120274411e-05 -3.1137362992203688e-05 0.0000000000000000e+00  -4.7946833855703587e-05 -3.5985345184776232e-05 0.0000000000000000e+00  -2.8614685517243903e-05 -2.6842079134365068e-05 0.0000000000000000e+00  -8.6740571142977056e-06 -1.8269205025755282e-05 0.0000000000000000e+00  1.1348753229058484e-06 -1.0267342018322125e-05 0.0000000000000000e+00  2.9448699355544604e-06 -3.9479063870762638e-06 0.0000000000000000e+00  -2.3684824337595410e-07 -1.1805571313739043e-06 0.0000000000000000e+00  -3.7715349340667743e-06 -3.1033130549457264e-06 0.0000000000000000e+00  -3.1540352310960368e-06 -9.2571787855491887e-06 0.0000000000000000e+00  4.6516644637287654e-06 -1.6816989318304300e-05 0.0000000000000000e+00  2.0604466564970270e-05 -2.4936434842769705e-05 0.0000000000000000e+00  4.3673656793635646e-05 -2.8329549311741546e-05 0.0000000000000000e+00  2.6391384408587751e-05 -2.7051545776068263e-05 0.0000000000000000e+00  1.5699765404096704e-05 -2.0827673418798260e-05 0.0000000000000000e+00  7.4946444182294877e-06 -1.1263958783274940e-05 0.0000000000000000e+00  0.0000000000000000e+00 0.0000000000000000e+00 0.0000000000000000e+00  0.0000000000000000e+00 0.0000000000000000e+00 0.0000000000000000e+00  -1.3204578432480487e-05 -3.0531276495603393e-05 0.0000000000000000e+00  -2.3716849094385234e-05 -5.6941709026518821e-05 0.0000000000000000e+00  -2.9969260950733590e-05 -7.5191590919532563e-05 0.0000000000000000e+00  -3.2300778813349978e-05 -8.1421527276905357e-05 0.0000000000000000e+00  -4.2501026993195101e-06 -7.7228886510017955e-05 0.0000000000000000e+00  1.4669226728644587e-05 -5.3242348303818123e-05 0.0000000000000000e+00  1.9821169501131818e-05 -2.2010053367005077e-05 0.0000000000000000e+00  1.3024925648531501e-05 3.1007152748142193e-06 0.0000000000000000e+00  -2.8340700590811361e-07 1.3217585120073470e-05 0.0000000000000000e+00  -1.3877648509778048e-05 5.2974279348925934e-06 0.0000000000000000e+00  -2.1632918908244376e-05 -1.6091491088346596e-05 0.0000000000000000e+00  -1.7421363717134754e-05 -4.5058392529223319e-05 0.0000000000000000e+00  6.1180216642429218e-07 -7.4207278081524133e-05 0.0000000000000000e+00  2.7954563739203455e-05 -8.4050592377816352e-05 0.0000000000000000e+00  2.6419924650181481e-05 -7.3885991155109079e-05 0.0000000000000000e+00  2.1453289007398636e-05 -5.5013782128958417e-05 0.0000000000000000e+00  1.2147007521659311e-05 -2.9327926674935885e-05 0.0000000000000000e+00  0.0000000000000000e+00 0.0000000000000000e+00 0.0000000000000000e+00  0.0000000000000000e+00 0.0000000000000000e+00 0.0000000000000000e+00  -2.8933241753629254e-05 -6.5264511452769205e-05 0.0000000000000000e+00  -4.7164037638070040e-05 -1.2346168946475021e-04 0.0000000000000000e+00  -4.6522853041579410e-05 -1.6732190426623462e-04 0.0000000000000000e+00  -2.4660077180279336e-05 -1.8986484879521726e-04 0.0000000000000000e+00  2.9890948093566261e-05 -1.5439059196494014e-04 0.0000000000000000e+00  5.4843654982842570e-05 -8.0220806634176569e-05 0.0000000000000000e+00  4.5383366754458206e-05 -2.4665960498430051e-06 0.0000000000000000e+00  2.1352826888319658e-05 4.0784517237898780e-05 0.0000000000000000e+00  -2.9842716997891517e-06 4.9479935786444453e-05 0.0000000000000000e+00  -2.4836009827376791e-05 3.5430785077983144e-05 0.0000000000000000e+00  -4.1403577894510941e-05 -3.4039255611292712e-06 0.0000000000000000e+00  -4.7420812324583342e-05 -6.8996577423506702e-05 0.0000000000000000e+00  -3.4278631612746716e-05 -1.3702615504529640e-04 0.0000000000000000e+00  1.2376558107845319e-05 -1.7074665450710202e-04 0.0000000000000000e+00  4.0176429191320975e-05 -1.5554729102987578e-04 0.0000000000000000e+00  4.4564269635263866e-05 -1.1645034851706357e-04 0.0000000000000000e+00  2.8160601278405824e-05 -6.1956243462552786e-05 0.0000000000000000e+00  0.0000000000000000e+00 0.0000000000000000e+00 0.0000000000000000e+00  0.0000000000000000e+00 0.0000000000000000e+00 0.0000000000000000e+00  -8.7459740235009510e-05 -1.2824790653265494e-04 0.0000000000000000e+00  -1.4609190536182115e-04 -2.4730889769346526e-04 0.0000000000000000e+00  -1.4795862764687941e-04 -3.4470094022350509e-04 0.0000000000000000e+00  -6.9106964074598621e-05 -3.9983837047951666e-04 0.0000000000000000e+00  3.6105808242041268e-05 -2.3602871533963095e-04 0.0000000000000000e+00  1.7084809297516735e-05 -4.3555384328940233e-05 0.0000000000000000e+00  -2.2020145481303002e-05 5.0313934300229662e-05 0.0000000000000000e+00  -2.5098792801295180e-05 6.1131036999693993e-05 0.0000000000000000e+00  -1.3937600818866167e-06 6.4295314839960262e-05 0.0000000000000000e+00  1.6394061504605465e-05 7.3710099721104201e-05 0.0000000000000000e+00  9.3556515154348663e-06 3.4418340783564902e-05 0.0000000000000000e+00  -3.6119684310229593e-05 -3.2533545605731454e-05 0.0000000000000000e+00  -5.1247737783487291e-05 -1.9813901184717565e-04 0.0000000000000000e+00  5.2391999864901880e-05 -3.8499095684662639e-04 0.0000000000000000e+00  1.4756641481505269e-04 -3.3277045400373925e-04 0.0000000000000000e+00  1.5082439391841552e-04 -2.3945376127875126e-04 0.0000000000000000e+00  9.1187391012480186e-05 -1.2441659420898434e-04 0.0000000000000000e+00  0.0000000000000000e+00 0.0000000000000000e+00 0.0000000000000000e+00  0.0000000000000000e+00 0.0000000000000000e+00 0.0000000000000000e+00  -2.6120015541766811e-04 -2.2790122632129279e-04 0.0000000000000000e+00  -4.7197778673170907e-04 -4.5771167637029020e-04 0.0000000000000000e+00  -5.7216919104097338e-04 -6.9089999363133631e-04 0.0000000000000000e+00  -4.7792486774001077e-04 -9.2788143267231549e-04 0.0000000000000000e+00  -3.1144379523332446e-04 -3.9963271672397159e-04 0.0000000000000000e+00  -3.3805390907935373e-04 5.4605981754501564e-05 0.0000000000000000e+00  -2.6988722967690462e-04 -2.3255828003891651e-05 0.0000000000000000e+00  -1.2324022555976129e-04 -4.8247480441650962e-05 0.0000000000000000e+00  -1.5044010476478262e-05 -5.4350355685786149e-05 0.0000000000000000e+00  9.2331914701956574e-05 -5.3916612390671285e-05 0.0000000000000000e+00  2.3519467638545864e-04 -5.6898209863597064e-05 0.0000000000000000e+00  3.6120055391881522e-04 1.0651901089273291e-04 0.0000000000000000e+00  3.4582030466035038e-04 -3.2566109116209088e-04 0.0000000000000000e+00  5.3542109424995963e-04 -8.9584187079149585e-04 0.0000000000000000e+00  6.2241475136227834e-04 -6.7421816450382362e-04 0.0000000000000000e+00  5.0853350546804798e-04 -4.4924943073838374e-04 0.0000000000000000e+00  2.8032993545591781e-04 -2.2433775271275998e-04 0.0000000000000000e+00  0.0000000000000000e+00 0.0000000000000000e+00 0.0000000000000000e+00  0.0000000000000000e+00 0.0000000000000000e+00 0.0000000000000000e+00  -6.3618495940394109e-04 -3.1975208221372961e-04 0.0000000000000000e+00  -1.2394809766862541e-03 -6.5432380350171715e-04 0.0000000000000000e+00  -1.7727164507545426e-03 -1.0214404403727664e-03 0.0000000000000000e+00  -2.1897547591018169e-03 -1.4458172011711527e-03 0.0000000000000000e+00  -2.1050557060367549e-03 -4.8380451004447801e-04 0.0000000000000000e+00  -2.1815952625671986e-03 4.6854034383186211e-04 0.0000000000000000e+00  -1.4946784849528298e-03 3.5352973973215172e-04 0.0000000000000000e+00  -7.3183217111212411e-04 2.9147138718634951e-04 0.0000000000000000e+00  5.9592073475876121e-05 2.7968824337194347e-04 0.0000000000000000e+00  8.5859916576751087e-04 3.2018521941151637e-04 0.0000000000000000e+00  1.6474623378238983e-03 4.2463966307762095e-04 0.0000000000000000e+00  2.3907812545464432e-03 6.2226745886313696e-04 0.0000000000000000e+00  2.3087163640882137e-03 -4.1406169429498995e-04 0.0000000000000000e+00  2.3631941217863357e-03 -1.4590088326776553e-03 0.0000000000000000e+00  1.8997424632369751e-03 -1.0286772356455825e-03 0.0000000000000000e+00  1.3230209127648054e-03 -6.5859021998761766e-04 0.0000000000000000e+00  6.7766489163034976e-04 -3.2182266029708181e-04 0.0000000000000000e+00  0.0000000000000000e+00 0.0000000000000000e+00 0.0000000000000000e+00  0.0000000000000000e+00 0.0000000000000000e+00 0.0000000000000000e+00  -1.1418070411010758e-03 -3.5213756996502080e-04 0.0000000000000000e+00  -2.2857561971254292e-03 -7.2043296323733973e-04 0.0000000000000000e+00  -3.4355377205212531e-03 -1.1224682784172196e-03 0.0000000000000000e+00  -4.5987681998671684e-03 -1.5786188875620945e-03 0.0000000000000000e+00  -4.6112437184079322e-03 -4.5582247628885594e-04 0.0000000000000000e+00  -4.6177645414492863e-03 6.8119150862025110e-04 0.0000000000000000e+00  -3.0249228321775727e-03 5.1885232671276089e-04 0.0000000000000000e+00  -1.4554911325777170e-03 4.3039492723945439e-04 0.0000000000000000e+00  1.0412427989809432e-04 4.0488810774650774e-04 0.0000000000000000e+00  1.6668066324922611e-03 4.3880432562601340e-04 0.0000000000000000e+00  3.2444887224357057e-03 5.3398473419991965e-04 0.0000000000000000e+00  4.8466002556347716e-03 6.9559937875853580e-04 0.0000000000000000e+00  4.8590655233527085e-03 -4.5531244342844195e-04 0.0000000000000000e+00  4.8660253041858080e-03 -1.5991047717073994e-03 0.0000000000000000e+00  3.6279083164912321e-03 -1.1414241682608697e-03 0.0000000000000000e+00  2.4107329938769027e-03 -7.3421428232852651e-04 0.0000000000000000e+00  1.2034160117796251e-03 -3.5928750782828601e-04 0.0000000000000000e+00  0.0000000000000000e+00 0.0000000000000000e+00 0.0000000000000000e+00  0.0000000000000000e+00 0.0000000000000000e+00 0.0000000000000000e+00  -1.6376093472823523e-03 -3.1976782483774622e-04 0.0000000000000000e+00  -3.3066407496538577e-03 -6.5131983382613978e-04 0.0000000000000000e+00  -5.0412450039443012e-03 -1.0066399187895710e-03 0.0000000000000000e+00  -6.8811155358388222e-03 -1.3979240748479486e-03 0.0000000000000000e+00  -6.9470202118998335e-03 -4.4209409931930335e-04 0.0000000000000000e+00  -6.8848241296510749e-03 5.0862519572129525e-04 0.0000000000000000e+00  -4.4647758134513695e-03 3.8965726318136436e-04 0.0000000000000000e+00  -2.1413024659279172e-03 3.1832975061783032e-04 0.0000000000000000e+00  1.3645540552238356e-04 2.9313127655452832e-04 0.0000000000000000e+00  2.4165460069465257e-03 3.1309147025554245e-04 0.0000000000000000e+00  4.7470168520156791e-03 3.7831687041178048e-04 0.0000000000000000e+00  7.1789867369631399e-03 4.8974639596951303e-04 0.0000000000000000e+00  7.2485605778619755e-03 -4.8570191929164308e-04 0.0000000000000000e+00  7.1876405781881002e-03 -1.4619018936803459e-03 0.0000000000000000e+00  5.2685209695570541e-03 -1.0517892477932523e-03 0.0000000000000000e+00  3.4567158010826056e-03 -6.8035645372561645e-04 0.0000000000000000e+00  1.7121923346584036e-03 -3.3401117615113485e-04 0.0000000000000000e+00  0.0000000000000000e+00 0.0000000000000000e+00 0.0000000000000000e+00  0.0000000000000000e+00 0.0000000000000000e+00 0.0000000000000000e+00  -2.0064022309239540e-03 -2.4022936860580496e-04 0.0000000000000000e+00  -4.0628741536417427e-03 -4.8700454551933178e-04 0.0000000000000000e+00  -6.2220900987823586e-03 -7.4674576655124560e-04 0.0000000000000000e+00  -8.5418954210287786e-03 -1.0255991890606667e-03 0.0000000000000000e+00  -8.6410295332207728e-03 -4.3925901384195021e-04 0.0000000000000000e+00  -8.5454662507354791e-03 1.4630307136633412e-04 0.0000000000000000e+00  -5.5224886558737632e-03 7.0727520293090664e-05 0.0000000000000000e+00  -2.6461927501273824e-03 2.2607072328723281e-05 0.0000000000000000e+00  1.5939291037803802e-04 1.5892248653793425e-06 0.0000000000000000e+00  2.9665514933025477e-03 7.1487428527022986e-06 0.0000000000000000e+00  5.8474631993661224e-03 3.8628178264982742e-05 0.0000000000000000e+00  8.8777451773209351e-03 9.5094132609163743e-05 0.0000000000000000e+00  8.9788522421535809e-03 -5.0828461307946308e-04 0.0000000000000000e+00  8.8825353409461936e-03 -1.1099026972457070e-03 0.0000000000000000e+00  6.4755545091444442e-03 -8.0711560000194869e-04 0.0000000000000000e+00  4.2308561524534889e-03 -5.2595200834520657e-04 0.0000000000000000e+00  2.0900911829340031e-03 -2.5932676189828604e-04 0.0000000000000000e+00  0.0000000000000000e+00 0.0000000000000000e+00 0.0000000000000000e+00  0.0000000000000000e+00 0.0000000000000000e+00 0.0000000000000000e+00  -2.1736972853634989e-03 -1.3452866144533736e-04 0.0000000000000000e+00  -4.4057175818669756e-03 -2.7079402339700421e-04 0.0000000000000000e+00  -6.7566050469404868e-03 -4.1033238644492675e-04 0.0000000000000000e+00  -9.2913427206202364e-03 -5.5428871959384187e-04 0.0000000000000000e+00  -9.4042275849188610e-03 -4.3949710213121967e-04 0.0000000000000000e+00  -9.2927200412188903e-03 -3.2558749637733259e-04 0.0000000000000000e+00  -5.9981629844081006e-03 -3.5741647258107290e-04 0.0000000000000000e+00  -2.8704627741254155e-03 -3.8089874003921384e-04 0.0000000000000000e+00  1.7595731557253628e-04 -3.9563650869342212e-04 0.0000000000000000e+00  3.2235806303181078e-03 -4.0186841197682467e-04 0.0000000000000000e+00  6.3548569789685224e-03 -4.0044690575426466e-04 0.0000000000000000e+00  9.6552744732400757e-03 -3.9289253610599563e-04 0.0000000000000000e+00  9.7690922037104479e-03 -5.1944235572162149e-04 0.0000000000000000e+00  9.6567807991032838e-03 -6.4481605756406591e-04 0.0000000000000000e+00  7.0290183771073373e-03 -4.7585924730674125e-04 0.0000000000000000e+00  4.5865273007266848e-03 -3.1335209580986837e-04 0.0000000000000000e+00  2.2638615411972262e-03 -1.5547004665701668e-04 0.0000000000000000e+00  -8.6243242103602483e-12 -6.5946186798380934e-12 0.0000000000000000e+00  0.0000000000000000e+00 0.0000000000000000e+00 0.0000000000000000e+00  -2.1065736089515195e-03 -2.1904749446706052e-05 0.0000000000000000e+00  -4.2706930653875303e-03 -4.1497271944835302e-05 0.0000000000000000e+00  -6.5517020629357386e-03 -5.6243092448805152e-05 0.0000000000000000e+00  -9.0125212364794306e-03 -6.3158902543004669e-05 0.0000000000000000e+00  -9.1229070639058784e-03 -4.4417029877666283e-04 0.0000000000000000e+00  -9.0134584260012571e-03 -8.2618886445470644e-04 0.0000000000000000e+00  -5.8111603466651915e-03 -8.1874843576859504e-04 0.0000000000000000e+00  -2.7718471503209749e-03 -8.1916379369020788e-04 0.0000000000000000e+00  1.8771096091696568e-04 -8.2666644418190609e-04 0.0000000000000000e+00  3.1482344646070414e-03 -8.4129686629123997e-04 0.0000000000000000e+00  6.1904299800819009e-03 -8.6388899592126651e-04 0.0000000000000000e+00  9.3974887002314638e-03 -8.9608480557328539e-04 0.0000000000000000e+00  9.5068622561638519e-03 -5.2297203326097971e-04 0.0000000000000000e+00  9.3948714710436424e-03 -1.4923712489164269e-04 0.0000000000000000e+00  6.8371342517908971e-03 -1.1882135992529819e-04 0.0000000000000000e+00  4.4603357190108276e-03 -8.2278233821823137e-05 0.0000000000000000e+00  2.2011957781899500e-03 -4.2013793786787067e-05 0.0000000000000000e+00  0.0000000000000000e+00 0.0000000000000000e+00 0.0000000000000000e+00  0.0000000000000000e+00 0.0000000000000000e+00 0.0000000000000000e+00  -1.8081076792493922e-03 8.1471079000324572e-05 0.0000000000000000e+00  -3.6656577246937348e-03 1.6841152966997369e-04 0.0000000000000000e+00  -5.6234782050090431e-03 2.6651683762936675e-04 0.0000000000000000e+00  -7.7350710581341603e-03 3.8195077487730987e-04 0.0000000000000000e+00  -7.8301988641979094e-03 -4.5310167090717820e-04 0.0000000000000000e+00  -7.7368884632963075e-03 -1.2890855033675357e-03 0.0000000000000000e+00  -4.9768299095987499e-03 -1.2488447896264858e-03 0.0000000000000000e+00  -2.3563371133204247e-03 -1.2292561319909661e-03 0.0000000000000000e+00  1.9571796805633728e-04 -1.2293631691379788e-03 0.0000000000000000e+00  2.7485680100954564e-03 -1.2490694246430625e-03 0.0000000000000000e+00  5.3714410046251946e-03 -1.2891343798058573e-03 0.0000000000000000e+00  8.1354532925418856e-03 -1.3511789457839160e-03 0.0000000000000000e+00  8.2267703696924620e-03 -5.2097664812590574e-04 0.0000000000000000e+00  8.1284482829160499e-03 3.0953084678870450e-04 0.0000000000000000e+00  5.9174143157176597e-03 2.1367487536486508e-04 0.0000000000000000e+00  3.8610807053486799e-03 1.3388530050663364e-04 0.0000000000000000e+00  1.9056506065027524e-03 6.4418988527437321e-05 0.0000000000000000e+00  0.0000000000000000e+00 0.0000000000000000e+00 0.0000000000000000e+00  0.0000000000000000e+00 0.0000000000000000e+00 0.0000000000000000e+00  -1.3105515373518959e-03 1.6299328041554460e-04 0.0000000000000000e+00  -2.6569328474345356e-03 3.3367490587628312e-04 0.0000000000000000e+00  -4.0759557793658505e-03 5.1996088125473604e-04 0.0000000000000000e+00  -5.6061872874987422e-03 7.3023999191749219e-04 0.0000000000000000e+00  -5.6763588776243051e-03 -4.6575644897066740e-04 0.0000000000000000e+00  -5.6097426955851598e-03 -1.6624932686090316e-03 0.0000000000000000e+00  -3.5886794167971775e-03 -1.5967524841626608e-03 0.0000000000000000e+00  -1.6690898275702503e-03 -1.5609840184922807e-03 0.0000000000000000e+00  2.0073630039760425e-04 -1.5540864061327491e-03 0.0000000000000000e+00  2.0712249333176315e-03 -1.5758418905046727e-03 0.0000000000000000e+00  3.9927988993158775e-03 -1.6269155655177967e-03 0.0000000000000000e+00  6.0171597381864731e-03 -1.7088572049939227e-03 0.0000000000000000e+00  6.0804017872264603e-03 -5.1536723536353322e-04 0.0000000000000000e+00  6.0058862337595813e-03 6.7820323041330351e-04 0.0000000000000000e+00  4.3748461194291861e-03 4.8190073150543788e-04 0.0000000000000000e+00  2.8557594752127344e-03 3.0876211016621564e-04 0.0000000000000000e+00  1.4098259553276149e-03 1.5067482936163021e-04 0.0000000000000000e+00  0.0000000000000000e+00 0.0000000000000000e+00 0.0000000000000000e+00  0.0000000000000000e+00 0.0000000000000000e+00 0.0000000000000000e+00  -6.6814189933708682e-04 2.1378952742027418e-04 0.0000000000000000e+00  -1.3548435948960193e-03 4.3653766534759676e-04 0.0000000000000000e+00  -2.0792267275862707e-03 6.7743308350742750e-04 0.0000000000000000e+00  -2.8612481865804501e-03 9.4613227577167104e-04 0.0000000000000000e+00  -2.8998272457796325e-03 -4.8097662019888296e-04 0.0000000000000000e+00  -2.8667909602951343e-03 -1.9084953612370377e-03 0.0000000000000000e+00  -1.7989880057634273e-03 -1.8252107646177813e-03 0.0000000000000000e+00  -7.8476061464673196e-04 -1.7776744541732452e-03 0.0000000000000000e+00  2.0329797285672055e-04 -1.7646516222186257e-03 0.0000000000000000e+00  1.1919186477192339e-03 -1.7858071120016585e-03 0.0000000000000000e+00  2.2078257248575781e-03 -1.8417053552186797e-03 0.0000000000000000e+00  3.2784067577292801e-03 -1.9338113753623225e-03 0.0000000000000000e+00  3.3072277701590423e-03 -5.0743836865950118e-04 0.0000000000000000e+00  