<?xml version="1.0"?>
<VTKFile type="UnstructuredGrid"  version="0.1"  >
<UnstructuredGrid>
<Piece  NumberOfPoints="589" NumberOfCells="1080">
<Points>
<DataArray  type="Float64"  NumberOfComponents="3"  format="ascii">-9 0 0  -8 0 0  -7 0 0  -6 0 0  -5 0 0  -4 0 0  -3 0 0  -2 0 0  -1 0 0  0 0 0  1 0 0  2 0 0  3 0 0  4 0 0  5 0 0  6 0 0  7 0 0  8 0 0  9 0 0  -9 2 0  -8.000008053935433 1.999988070953614 0  -7.000016907258948 1.999977588426074 0  -6.000028411160462 1.999969724085947 0  -5.000046773658868 1.999964982630137 0  -4.000027980396904 1.999973901534787 0  -3.000008591759877 1.999982232825225 0  -1.999999039393739 1.999989996088332 0  -0.9999972443048154 1.999996127506877 0  -2.918909817628535e-07 1.999998817355122 0  0.9999963106686842 1.999996966670977 0  1.999996923857736 1.999991022595428 0  3.000004483973031 1.999983722315568 0  4.000019912244743 1.999975892935142 0  5.00004220256315 1.999972660572413 0  6.000025479212367 1.999973878833476 0  7.000015146868054 1.999979882781045 0  8.000007228014054 1.999989118712199 0  9 2 0  -9 4 0  -8.000012910123786 3.999970356639755 0  -7.000023212235557 3.999944704706365 0  -6.000029387826586 3.999926956961773 0  -5.000031764288072 3.99992085145546 0  -4.000004539552387 3.999924952563843 0  -2.999986164850708 3.999948221546315 0  -1.999981127731953 3.99997850753179 0  -0.9999876656502661 4.000002856459385 0  -5.14847384943874e-07 4.000012680411151 0  0.9999863536552971 4.000005043803767 0  1.999978866627725 3.99998437578508 0  2.999982950675252 3.999956386619155 0  4.000000395922745 3.999928246795948 0  5.000026836204653 3.99991882488245 0  6.000025394184899 3.999928615455465 0  7.000020639544506 3.999946838497608 0  8.000011692320422 3.999971656899773 0  9 4 0  -9 6 0  -8.000028197363481 5.999936680540107 0  -7.000046023233296 5.999880207850583 0  -6.000045561054353 5.999837624351594 0  -5.000024535274448 5.999815690657313 0  -3.999971654804439 5.999850103711715 0  -2.999947452455546 5.99992199915816 0  -1.999956594340544 5.999997356705975 0  -0.9999798453170906 6.000039269470542 0  -3.381309123200433e-06 6.000047713304106 0  0.9999755018584021 6.000034141456399 0  1.999959504470387 5.999996602405833 0  2.999953706003895 5.999933200734855 0  3.999966430377112 5.999867467810279 0  5.000011571166318 5.999834952254615 0  6.000038559618861 5.999849625543622 0  7.000042901507517 5.999887416629306 0  8.000027135454369 5.999940099969986 0  9 6 0  -9 8 0  -8.000084959343177 7.999875635358126 0  -7.000141979636584 7.9997601735852 0  -6.00014398479564 7.999665711608611 0  -5.000067764305268 7.999612200792694 0  -3.999965806048856 7.999770978330725 0  -2.999984263547538 7.999957519462352 0  -2.000022174343274 8.000048469591269 0  -1.000025156376253 8.00005891775392 0  -2.172079759327279e-06 8.000061966463459 0  1.000015103416382 8.000071071407071 0  2.000008351275627 8.000033102203941 0  2.999964412951138 7.999968389123873 0  3.999949839228028 7.99980829036118 0  5.000050118268229 7.999627659670407 0  6.000142297602573 7.999678191053821 0  7.000145579454544 7.999768446119429 0  8.000088042622256 7.999879691716351 0  9 8 0  -9 10 0  -8.000253387060216 9.999779051658908 0  -7.000457899084967 9.999556252916848 0  -6.000555218588942 9.999330180402008 0  -5.000464074323641 9.999100430215757 0  -4.000302729973602 9.999612450953087 0  -3.000328568832503 10.00005272631328 0  -2.000262530916756 9.999977170313386 0  -1.000120416572631 9.999952921336185 0  -1.560467107573865e-05 9.999947003838258 0  1.000088375701384 9.999947436666119 0  2.000226648786026 9.999944597021234 0  3.000348697680315 10.00010266371945 0  4.000333944932909 9.999684825172002 0  5.00051727555697 9.999133588203858 0  6.000601431624297 9.999348011540729 0  7.000491409800594 9.999565597228619 0  8.000270892816616 9.999783085864845 0  9 10 0  -9 12 0  -8.000616896564726 11.99969002497243 0  -7.00120190576459 11.99936568937866 0  -6.001718988229655 11.99900981633916 0  -5.002123422615879 11.99859845291047 0  -4.002041314087409 11.99953098201294 0  -3.002115551539348 12.00045416383606 0  -2.001450910458766 12.00034246560865 0  -1.000712592424053 12.00028206356852 0  5.352043937324281e-05 12.00027035153826 0  1.000827112695533 12.00030925093089 0  2.001591072836694 12.00041004355285 0  3.002311241084528 12.0006009782995 0  4.00223206058898 11.99959932920509 0  5.002284635748124 11.99858937839801 0  6.001836324179094 11.99900552689988 0  7.001278743571031 11.99936334817087 0  8.00065495402534 11.99968890924075 0  9 12 0  -9 14 0  -8.001107093254626 13.9996586159258 0  -7.00221623934566 13.99930157910879 0  -6.003330989847884 13.99891185694941 0  -5.004458708221773 13.99846971115956 0  -4.004470745973837 13.999558272703 0  -3.004477131359107 14.00066063142252 0  -2.002935626011078 14.00050290084576 0  -1.00141665891312 14.00041673231862 0  9.293586147961139e-05 14.00039151727862 0  1.001605650624213 14.00042381678507 0  2.003133076563279 14.000515389379 0  3.004684403896099 14.00067121596016 0  4.004696677134581 13.99955950963906 0  5.004703284141113 13.99845470943072 0  6.003506199686544 13.99889703627876 0  7.002329687377059 13.99929054958323 0  8.00116290834077 13.99965283824102 0  9 14 0  -9 16 0  -8.001587903649899 15.99968993421743 0  -7.003206220142702 15.99936845667775 0  -6.004888005132164 15.99902396272103 0  -5.006671688024015 15.99864464480247 0  -4.006735478905046 15.99957171885721 0  -3.006675304193339 16.00049384651771 0  -2.004333235528574 16.00037803392585 0  -1.002084568433899 16.00030834930472 0  0.0001199283235247741 16.00028331341633 0  1.002326771131941 16.00030196834129 0  2.00458248193747 16.00036439636623 0  3.006936560955093 16.00047148334738 0  4.007004026730105 15.99953019363575 0  5.006945006692217 15.99858818495841 0  6.005090251792501 15.99898426484183 0  7.003339555344509 15.99934297527865 0  8.001654100821177 15.99967744636421 0  9 16 0  -9 18 0  -8.001945820903339 17.99976692953494 0  -7.003940111736472 17.99952752155055 0  -6.006033864549204 17.9992755606466 0  -5.008283081576316 17.99900509908819 0  -4.008379060887619 17.99957455329335 0  -3.008286591909252 18.00014326264141 0  -2.005361134606344 18.00006943057641 0  -1.002577618370667 18.00002217505364 0  0.0001374726316360962 18.00000114117967 0  1.002854086530067 18.00000580479029 0  2.005642071510752 18.00003551149755 0  3.008574599544318 18.00008933759299 0  4.008672480583732 17.99950838471619 0  5.008579267758638 17.99892914202845 0  6.006254037941738 17.99922126825526 0  7.004085922469687 17.99949254117663 0  8.002018430534338 17.99974979078656 0  9 18 0  -9 20 0  -8.002108713661356 19.99986925510981 0  -7.004273889490958 19.99973682695388 0  -6.006554140064498 19.99960122660753 0  -5.009012375872969 19.99946134527765 0  -4.00912167502922 19.99957436848201 0  -3.009013772408988 19.99968655275184 0  -2.005825661211624 19.99965508813636 0  -1.002799050598697 19.99963170066492 0  0.0001488447829497397 19.99961676415828 0  1.003097817980188 19.99961003456909 0  2.006127626724969 19.99961067186765 0  3.009320962259031 19.99961718751713 0  4.009431052520148 19.99949757720924 0  5.009322432275151 19.99937911625469 0  6.006785225831516 19.9995417669113 0  7.004427245120787 19.99969823932385 0  8.002185179717181 19.99985027664088 0  8.999999999988324 19.9999999999934 0  -9 22 0  -8.002044700357136 21.9999782913297 0  -7.004145117160491 21.99995881521906 0  -6.006358706387886 21.9999440195214 0  -5.008746386132993 21.99993678663375 0  -4.008853266484641 21.99956987867628 0  -3.008747338522163 21.99920201796404 0  -2.005648632470983 21.99920862283862 0  -1.002707716045211 21.99920762664273 0  0.000155904678652471 21.99919976402535 0  1.003020296330985 21.99918498532071 0  2.005963508161033 21.99916247162991 0  3.009065984698476 21.99913062072726 0  4.009171714951566 21.99949412199532 0  5.009063475765512 21.99985824375094 0  6.006595534858268 21.99988696230997 0  7.004302518489281 21.99992165314788 0  8.002123250136938 21.99995997315019 0  9 22 0  -9 24 0  -8.001756734927209 24.00007839769868 0  -7.003561355689769 24.0001620801381 0  -6.005463085648637 24.00025655153346 0  -5.007513739643301 24.00036776768226 0  -4.007605849558121 23.99956129231023 0  -3.007515500579006 23.99875394215576 0  -2.004844760016858 23.99879238615529 0  -1.002309188477581 23.99881085288101 0  0.0001599868094539926 23.99881026132639 0  1.002629706567076 23.99879069667554 0  2.005166902329152 23.99875141528519 0  3.007840323054467 23.99869083937066 0  4.007928559559527 23.99949601862786 0  5.007833610185152 24.0003015171045 0  6.005702339184398 24.00020823906284 0  7.003720534317703 24.00013052733579 0  8.00183621937116 24.00006281828257 0  9 24 0  -9 26 0  -8.001275989466754 26.0001573870755 0  -7.0025867074521 26.00032220442945 0  -6.003967829802552 26.00050210226338 0  -5.005456731557601 26.00070519173926 0  -4.005524690558858 25.99954914922649 0  -3.005460121402942 25.99839241653178 0  -2.003504360312005 25.9984556613833 0  -1.001646959289795 25.99848992087257 0  0.0001620693789405944 25.99849625471634 0  1.001971470570789 25.99847486786903 0  2.003829981160912 25.99842511134866 0  3.005787565679901 25.99834548032533 0  4.005848647061236 25.9995014437876 0  5.005776779324749 26.00065751028718 0  6.004207501930754 26.00046724712476 0  7.002746301582763 26.00029939747638 0  8.001355721710267 26.00014611234017 0  9 26 0  -9 28 0  -8.000654894050591 28.00020668071828 0  -7.001327822547554 28.00042202189507 0  -6.002037360367807 28.0006549061575 0  -5.002802893567486 28.00091466773755 0  -4.002840290828847 27.9995345687244 0  -3.002808163434554 27.99815409448441 0  -2.001774592151546 27.99823446782752 0  -1.00079308494161 27.99828027491484 0  0.0001628428255760278 27.99829270605318 0  1.001119020477822 27.99827208218776 0  2.002101266143731 27.99821785497556 0  3.003136031405759 27.99812860583737 0  4.003163836927141 27.99950915087809 0  5.003121899366937 28.00088971650668 0  6.002276468293604 28.00063662674539 0  7.001487145914589 28.00041004162954 0  8.000734
[...]
<PointData  Vectors="f_42"> 
<DataArray  type="Float64"  Name="f_42"  NumberOfComponents="3" format="ascii">0.0000000000000000e+00 0.0000000000000000e+00 0.0000000000000000e+00  0.0000000000000000e+00 0.0000000000000000e+00 0.0000000000000000e+00  0.0000000000000000e+00 0.0000000000000000e+00 0.0000000000000000e+00  0.0000000000000000e+00 0.0000000000000000e+00 0.0000000000000000e+00  0.0000000000000000e+00 0.0000000000000000e+00 0.0000000000000000e+00  0.0000000000000000e+00 0.0000000000000000e+00 0.0000000000000000e+00  0.0000000000000000e+00 0.0000000000000000e+00 0.0000000000000000e+00  0.0000000000000000e+00 0.0000000000000000e+00 0.0000000000000000e+00  0.0000000000000000e+00 0.0000000000000000e+00 0.0000000000000000e+00  0.0000000000000000e+00 0.0000000000000000e+00 0.0000000000000000e+00  0.0000000000000000e+00 0.0000000000000000e+00 0.0000000000000000e+00  0.0000000000000000e+00 0.0000000000000000e+00 0.0000000000000000e+00  0.0000000000000000e+00 0.0000000000000000e+00 0.0000000000000000e+00  0.0000000000000000e+00 0.0000000000000000e+00 0.0000000000000000e+00  0.0000000000000000e+00 0.0000000000000000e+00 0.0000000000000000e+00  0.0000000000000000e+00 0.0000000000000000e+00 0.0000000000000000e+00  0.0000000000000000e+00 0.0000000000000000e+00 0.0000000000000000e+00  0.0000000000000000e+00 0.0000000000000000e+00 0.0000000000000000e+00  0.0000000000000000e+00 0.0000000000000000e+00 0.0000000000000000e+00  0.0000000000000000e+00 0.0000000000000000e+00 0.0000000000000000e+00  -8.0539354432806153e-06 -1.1929046385832882e-05 0.0000000000000000e+00  -1.6907258944736302e-05 -2.2411573925813249e-05 0.0000000000000000e+00  -2.8411160461693516e-05 -3.0275914052935362e-05 0.0000000000000000e+00  -4.6773658871879413e-05 -3.5017369863703514e-05 0.0000000000000000e+00  -2.7980396903960873e-05 -2.6098465212635927e-05 0.0000000000000000e+00  -8.5917598802481728e-06 -1.7767174773847607e-05 0.0000000000000000e+00  9.6060626241583305e-07 -1.0003911668556748e-05 0.0000000000000000e+00  2.7556951841237660e-06 -3.8724931230103884e-06 0.0000000000000000e+00  -2.9189098176285350e-07 -1.1826448785712526e-06 0.0000000000000000e+00  -3.6893313149451535e-06 -3.0333290224436656e-06 0.0000000000000000e+00  -3.0761422657014347e-06 -8.9774045702043425e-06 0.0000000000000000e+00  4.4839730329072665e-06 -1.6277684433727308e-05 0.0000000000000000e+00  1.9912244742901569e-05 -2.4107064858195696e-05 0.0000000000000000e+00  4.2202563149938669e-05 -2.7339427586522247e-05 0.0000000000000000e+00  2.5479212362083506e-05 -2.6121166524353656e-05 0.0000000000000000e+00  1.5146868053141986e-05 -2.0117218955893930e-05 0.0000000000000000e+00  7.2280140477537525e-06 -1.0881287802259488e-05 0.0000000000000000e+00  0.0000000000000000e+00 0.0000000000000000e+00 0.0000000000000000e+00  0.0000000000000000e+00 0.0000000000000000e+00 0.0000000000000000e+00  -1.2910123783726060e-05 -2.9643360246300036e-05 0.0000000000000000e+00  -2.3212235549008952e-05 -5.5295293637075096e-05 0.0000000000000000e+00  -2.9387826584579685e-05 -7.3043038229627429e-05 0.0000000000000000e+00  -3.1764288076607900e-05 -7.9148544538472929e-05 0.0000000000000000e+00  -4.5395523884444003e-06 -7.5047436156929897e-05 0.0000000000000000e+00  1.3835149291507659e-05 -5.1778453682310637e-05 0.0000000000000000e+00  1.8872268046372067e-05 -2.1492468210984557e-05 0.0000000000000000e+00  1.2334349733852019e-05 2.8564593872979945e-06 0.0000000000000000e+00  -5.1484738494387398e-07 1.2680411151994773e-05 0.0000000000000000e+00  -1.3646344703011051e-05 5.0438037722169730e-06 0.0000000000000000e+00  -2.1133372274793494e-05 -1.5624214920108269e-05 0.0000000000000000e+00  -1.7049324744124382e-05 -4.3613380845799535e-05 0.0000000000000000e+00  3.9592274133874876e-07 -7.1753204052461670e-05 0.0000000000000000e+00  2.6836204645940322e-05 -8.1175117549454594e-05 0.0000000000000000e+00  2.5394184894464215e-05 -7.1384544533696867e-05 0.0000000000000000e+00  2.0639544505899337e-05 -5.3161502391361505e-05 0.0000000000000000e+00  1.1692320435817225e-05 -2.8343100228214518e-05 0.0000000000000000e+00  0.0000000000000000e+00 0.0000000000000000e+00 0.0000000000000000e+00  0.0000000000000000e+00 0.0000000000000000e+00 0.0000000000000000e+00  -2.8197363483883947e-05 -6.3319459897864144e-05 0.0000000000000000e+00  -4.6023233294235170e-05 -1.1979214941648894e-04 0.0000000000000000e+00  -4.5561054358520248e-05 -1.6237564840565659e-04 0.0000000000000000e+00  -2.4535274445821102e-05 -1.8430934268303710e-04 0.0000000000000000e+00  2.8345195562175405e-05 -1.4989628828018803e-04 0.0000000000000000e+00  5.2547544454611851e-05 -7.8000841834732510e-05 0.0000000000000000e+00  4.3405659456219892e-05 -2.6432940272018888e-06 0.0000000000000000e+00  2.0154682909767639e-05 3.9269470542232490e-05 0.0000000000000000e+00  -3.3813091232004329e-06 4.7713304105985845e-05 0.0000000000000000e+00  -2.4498141598290369e-05 3.4141456399931070e-05 0.0000000000000000e+00  -4.0495529612567287e-05 -3.3975941705662806e-06 0.0000000000000000e+00  -4.6293996105985326e-05 -6.6799265140509681e-05 0.0000000000000000e+00  -3.3569622888459158e-05 -1.3253218971962389e-04 0.0000000000000000e+00  1.1571166319100444e-05 -1.6504774538665662e-04 0.0000000000000000e+00  3.8559618854265096e-05 -1.5037445637537466e-04 0.0000000000000000e+00  4.2901507514474553e-05 -1.1258337069285024e-04 0.0000000000000000e+00  2.7135454367828444e-05 -5.9900030014199086e-05 0.0000000000000000e+00  0.0000000000000000e+00 0.0000000000000000e+00 0.0000000000000000e+00  0.0000000000000000e+00 0.0000000000000000e+00 0.0000000000000000e+00  -8.4959343187461777e-05 -1.2436464187228654e-04 0.0000000000000000e+00  -1.4197963658491944e-04 -2.3982641480121701e-04 0.0000000000000000e+00  -1.4398479564320022e-04 -3.3428839139408524e-04 0.0000000000000000e+00  -6.7764305269340497e-05 -3.8779920729792555e-04 0.0000000000000000e+00  3.4193951145046529e-05 -2.2902166927237346e-04 0.0000000000000000e+00  1.5736452460157414e-05 -4.2480537649447580e-05 0.0000000000000000e+00  -2.2174343273626167e-05 4.8469591274904282e-05 0.0000000000000000e+00  -2.5156376252732974e-05 5.8917753924718166e-05 0.0000000000000000e+00  -2.1720797593272786e-06 6.1966463458375189e-05 0.0000000000000000e+00  1.5103416382965180e-05 7.1071407067040013e-05 0.0000000000000000e+00  8.3512756256704875e-06 3.3102203935556670e-05 0.0000000000000000e+00  -3.5587048862658457e-05 -3.1610876123249176e-05 0.0000000000000000e+00  -5.0160771972010893e-05 -1.9170963881952408e-04 0.0000000000000000e+00  5.0118268226022783e-05 -3.7234032959764928e-04 0.0000000000000000e+00  1.4229760257668654e-04 -3.2180894617682936e-04 0.0000000000000000e+00  1.4557945454305476e-04 -2.3155388057923652e-04 0.0000000000000000e+00  8.8042622249892734e-05 -1.2030828364985062e-04 0.0000000000000000e+00  0.0000000000000000e+00 0.0000000000000000e+00 0.0000000000000000e+00  0.0000000000000000e+00 0.0000000000000000e+00 0.0000000000000000e+00  -2.5338706021878644e-04 -2.2094834108925908e-04 0.0000000000000000e+00  -4.5789908496485227e-04 -4.4374708314974699e-04 0.0000000000000000e+00  -5.5521858894058327e-04 -6.6981959798859646e-04 0.0000000000000000e+00  -4.6407432364353182e-04 -8.9956978424508578e-04 0.0000000000000000e+00  -3.0272997359783425e-04 -3.8754904690670844e-04 0.0000000000000000e+00  -3.2856883250519944e-04 5.2726313278829259e-05 0.0000000000000000e+00  -2.6253091675767007e-04 -2.2829686612775938e-05 0.0000000000000000e+00  -1.2041657263139274e-04 -4.7078663815733439e-05 0.0000000000000000e+00  -1.5604671075738651e-05 -5.2996161754856768e-05 0.0000000000000000e+00  8.8375701386028595e-05 -5.2563333880882548e-05 0.0000000000000000e+00  2.2664878602715583e-04 -5.5402978775559451e-05 0.0000000000000000e+00  3.4869768031581033e-04 1.0266371944477859e-04 0.0000000000000000e+00  3.3394493291458838e-04 -3.1517482799921004e-04 0.0000000000000000e+00  5.1727555697279393e-04 -8.6641179614401008e-04 0.0000000000000000e+00  6.0143162430180083e-04 -6.5198845927127384e-04 0.0000000000000000e+00  4.9140980059130391e-04 -4.3440277138108630e-04 0.0000000000000000e+00  2.7089281661022785e-04 -2.1691413515562206e-04 0.0000000000000000e+00  0.0000000000000000e+00 0.0000000000000000e+00 0.0000000000000000e+00  0.0000000000000000e+00 0.0000000000000000e+00 0.0000000000000000e+00  -6.1689656472361739e-04 -3.0997502756598550e-04 0.0000000000000000e+00  -1.2019057645900287e-03 -6.3431062133842702e-04 0.0000000000000000e+00  -1.7189882296530120e-03 -9.9018366083175689e-04 0.0000000000000000e+00  -2.1234226158796362e-03 -1.4015470895200755e-03 0.0000000000000000e+00  -2.0413140874091318e-03 -4.6901798705536015e-04 0.0000000000000000e+00  -2.1155515393487582e-03 4.5416383606211190e-04 0.0000000000000000e+00  -1.4509104587665754e-03 3.4246560865531026e-04 0.0000000000000000e+00  -7.1259242405184991e-04 2.8206356852153273e-04 0.0000000000000000e+00  5.3520439373242808e-05 2.7035153827057471e-04 0.0000000000000000e+00  8.2711269553338714e-04 3.0925093088749275e-04 0.0000000000000000e+00  1.5910728366921331e-03 4.1004355285617226e-04 0.0000000000000000e+00  2.3112410845269743e-03 6.0097829949869825e-04 0.0000000000000000e+00  2.2320605889819089e-03 -4.0067079490326680e-04 0.0000000000000000e+00  2.2846357481176214e-03 -1.4106216019828107e-03 0.0000000000000000e+00  1.8363241790940225e-03 -9.9447310012430712e-04 0.0000000000000000e+00  1.2787435710366617e-03 -6.3665182913038643e-04 0.0000000000000000e+00  6.5495402534160112e-04 -3.1109075925230158e-04 0.0000000000000000e+00  0.0000000000000000e+00 0.0000000000000000e+00 0.0000000000000000e+00  0.0000000000000000e+00 0.0000000000000000e+00 0.0000000000000000e+00  -1.1070932546333526e-03 -3.4138407419801820e-04 0.0000000000000000e+00  -2.2162393456606768e-03 -6.9842089121496473e-04 0.0000000000000000e+00  -3.3309898478888285e-03 -1.0881430505920082e-03 0.0000000000000000e+00  -4.4587082217771102e-03 -1.5302888404390997e-03 0.0000000000000000e+00  -4.4707459738378514e-03 -4.4172729699009435e-04 0.0000000000000000e+00  -4.4771313591054187e-03 6.6063142251934727e-04 0.0000000000000000e+00  -2.9356260110774504e-03 5.0290084574968223e-04 0.0000000000000000e+00  -1.4166589131191126e-03 4.1673231860884439e-04 0.0000000000000000e+00  9.2935861479611392e-05 3.9151727861300704e-04 0.0000000000000000e+00  1.6056506242121934e-03 4.2381678507720733e-04 0.0000000000000000e+00  3.1330765632807669e-03 5.1538937900041145e-04 0.0000000000000000e+00  4.6844038960996096e-03 6.7121596015467936e-04 0.0000000000000000e+00  4.6966771345766213e-03 -4.4049036094201654e-04 0.0000000000000000e+00  4.7032841411151476e-03 -1.5452905692707609e-03 0.0000000000000000e+00  3.5061996865402316e-03 -1.1029637212342481e-03 0.0000000000000000e+00  2.3296873770596686e-03 -7.0945041677509537e-04 0.0000000000000000e+00  1.1629083407684849e-03 -3.4716175898135299e-04 0.0000000000000000e+00  0.0000000000000000e+00 0.0000000000000000e+00 0.0000000000000000e+00  0.0000000000000000e+00 0.0000000000000000e+00 0.0000000000000000e+00  -1.5879036498942822e-03 -3.1006578258373598e-04 0.0000000000000000e+00  -3.2062201427024610e-03 -6.3154332224652225e-04 0.0000000000000000e+00  -4.8880051321609427e-03 -9.7603727896281912e-04 0.0000000000000000e+00  -6.6716880240157341e-03 -1.3553551975357004e-03 0.0000000000000000e+00  -6.7354789050419290e-03 -4.2828114278775116e-04 0.0000000000000000e+00  -6.6753041933396784e-03 4.9384651771384384e-04 0.0000000000000000e+00  -4.3332355285730382e-03 3.7803392586365110e-04 0.0000000000000000e+00  -2.0845684338993255e-03 3.0834930471198901e-04 0.0000000000000000e+00  1.1992832352477408e-04 2.8331341633698739e-04 0.0000000000000000e+00  2.3267711319413650e-03 3.0196834129070263e-04 0.0000000000000000e+00  4.5824819374678701e-03 3.6439636622643163e-04 0.0000000000000000e+00  6.9365609550961268e-03 4.7148334736197721e-04 0.0000000000000000e+00  7.0040267301032366e-03 -4.6980636423435792e-04 0.0000000000000000e+00  6.9450066922214998e-03 -1.4118150416023397e-03 0.0000000000000000e+00  5.0902517925059043e-03 -1.0157351581697367e-03 0.0000000000000000e+00  3.3395553445086821e-03 -6.5702472135192966e-04 0.0000000000000000e+00  1.6541008211820127e-03 -3.2255363578723520e-04 0.0000000000000000e+00  0.0000000000000000e+00 0.0000000000000000e+00 0.0000000000000000e+00  0.0000000000000000e+00 0.0000000000000000e+00 0.0000000000000000e+00  -1.9458209033248448e-03 -2.3307046504220452e-04 0.0000000000000000e+00  -3.9401117364708431e-03 -4.7247844944368152e-04 0.0000000000000000e+00  -6.0338645492026754e-03 -7.2443935341037541e-04 0.0000000000000000e+00  -8.2830815763196772e-03 -9.9490091181006967e-04 0.0000000000000000e+00  -8.3790608876176832e-03 -4.2544670665390033e-04 0.0000000000000000e+00  -8.2865919092524401e-03 1.4326264141909637e-04 0.0000000000000000e+00  -5.3611346063432135e-03 6.9430576412305301e-05 0.0000000000000000e+00  -2.5776183706687416e-03 2.2175053636724531e-05 0.0000000000000000e+00  1.3747263163609624e-04 1.1411796538872814e-06 0.0000000000000000e+00  2.8540865300665181e-03 5.8047902946216083e-06 0.0000000000000000e+00  5.6420715107484750e-03 3.5511497553017300e-05 0.0000000000000000e+00  8.5745995443170988e-03 8.9337592963633898e-05 0.0000000000000000e+00  8.6724805837317311e-03 -4.9161528381484190e-04 0.0000000000000000e+00  8.5792677586394028e-03 -1.0708579715596601e-03 0.0000000000000000e+00  6.2540379417355988e-03 -7.7873174475878780e-04 0.0000000000000000e+00  4.0859224696926048e-03 -5.0745882335744951e-04 0.0000000000000000e+00  2.0184305343357986e-03 -2.5020921344603471e-04 0.0000000000000000e+00  0.0000000000000000e+00 0.0000000000000000e+00 0.0000000000000000e+00  0.0000000000000000e+00 0.0000000000000000e+00 0.0000000000000000e+00  -2.1087136613483488e-03 -1.3074489019705257e-04 0.0000000000000000e+00  -4.2738894909556176e-03 -2.6317304612305585e-04 0.0000000000000000e+00  -6.5541400645013938e-03 -3.9877339243994323e-04 0.0000000000000000e+00  -9.0123758729687749e-03 -5.3865472234439064e-04 0.0000000000000000e+00  -9.1216750292179433e-03 -4.2563151798360674e-04 0.0000000000000000e+00  -9.0137724089892676e-03 -3.1344724816971190e-04 0.0000000000000000e+00  -5.8256612116237083e-03 -3.4491186362537737e-04 0.0000000000000000e+00  -2.7990505986974536e-03 -3.6829933507759511e-04 0.0000000000000000e+00  1.4884478294973966e-04 -3.8323584170975718e-04 0.0000000000000000e+00  3.0978179801886205e-03 -3.8996543091622207e-04 0.0000000000000000e+00  6.1276267249737205e-03 -3.8932813236596805e-04 0.0000000000000000e+00  9.3209622590314754e-03 -3.8281248288848447e-04 0.0000000000000000e+00  9.4310525201487198e-03 -5.0242279077175275e-04 0.0000000000000000e+00  9.3224322751510724e-03 -6.2088374529913645e-04 0.0000000000000000e+00  6.7852258315136129e-03 -4.5823308870492020e-04 0.0000000000000000e+00  4.4272451207856391e-03 -3.0176067615143170e-04 0.0000000000000000e+00  2.1851797171616844e-03 -1.4972335912855371e-04 0.0000000000000000e+00  -1.1680455464908630e-11 -6.5946186798380934e-12 0.0000000000000000e+00  0.0000000000000000e+00 0.0000000000000000e+00 0.0000000000000000e+00  -2.0447003571320370e-03 -2.1708670312999723e-05 0.0000000000000000e+00  -4.1451171604941200e-03 -4.1184780959170864e-05 0.0000000000000000e+00  -6.3587063878853232e-03 -5.5980478590598266e-05 0.0000000000000000e+00  -8.7463861329920237e-03 -6.3213366247938193e-05 0.0000000000000000e+00  -8.8532664846420073e-03 -4.3012132369203921e-04 0.0000000000000000e+00  -8.7473385221656270e-03 -7.9798203594820820e-04 0.0000000000000000e+00  -5.6486324709808279e-03 -7.9137716136042774e-04 0.0000000000000000e+00  -2.7077160452111987e-03 -7.9237335726626808e-04 0.0000000000000000e+00  1.5590467865247097e-04 -8.0023597466970123e-04 0.0000000000000000e+00  3.0202963309856139e-03 -8.1501467930292053e-04 0.0000000000000000e+00  5.9635081610323552e-03 -8.3752837010425099e-04 0.0000000000000000e+00  9.0659846984756133e-03 -8.6937927274390622e-04 0.0000000000000000e+00  9.1717149515696556e-03 -5.0587800465782943e-04 0.0000000000000000e+00  9.0634757655123129e-03 -1.4175624906634339e-04 0.0000000000000000e+00  6.5955348582666029e-03 -1.1303769002060582e-04 0.0000000000000000e+00  4.3025184892772567e-03 -7.8346852102073469e-05 0.0000000000000000e+00  2.1232501369328055e-03 -4.0026849806727110e-05 0.0000000000000000e+00  0.0000000000000000e+00 0.0000000000000000e+00 0.0000000000000000e+00  0.0000000000000000e+00 0.0000000000000000e+00 0.0000000000000000e+00  -1.7567349272002927e-03 7.8397698680226631e-05 0.0000000000000000e+00  -3.5613556897709530e-03 1.6208013810123953e-04 0.0000000000000000e+00  -5.4630856486437970e-03 2.5655153346793659e-04 0.0000000000000000e+00  -7.5137396432939357e-03 3.6776768225704515e-04 0.0000000000000000e+00  -7.6058495581211288e-03 -4.3870768976153965e-04 0.0000000000000000e+00  -7.5155005790044889e-03 -1.2460578442466997e-03 0.0000000000000000e+00  -4.8447600168547078e-03 -1.2076138447078897e-03 0.0000000000000000e+00  -2.3091884775807200e-03 -1.1891471189866838e-03 0.0000000000000000e+00  1.5998680945399259e-04 -1.1897386736100894e-03 0.0000000000000000e+00  2.6297065670750704e-03 -1.2093033244590327e-03 0.0000000000000000e+00  5.1669023291543419e-03 -1.2485847147903745e-03 0.0000000000000000e+00  7.8403230544661501e-03 -1.3091606293374762e-03 0.0000000000000000e+00  7.9285595595230095e-03 -5.0398137214255085e-04 0.0000000000000000e+00  7.8336101851499505e-03 3.0151710449159025e-04 0.0000000000000000e+00  5.7023391844002727e-03 2.0823906285808545e-04 0.0000000000000000e+00  3.7205343177034011e-03 1.3052733578561347e-04 0.0000000000000000e+00  1.8362193711636381e-03 6.2818282582060637e-05 0.0000000000000000e+00  0.0000000000000000e+00 0.0000000000000000e+00 0.0000000000000000e+00  0.0000000000000000e+00 0.0000000000000000e+00 0.0000000000000000e+00  -1.2759894667554571e-03 1.5738707549093928e-04 0.0000000000000000e+00  -2.5867074521022282e-03 3.2220442946679137e-04 0.0000000000000000e+00  -3.9678298025520951e-03 5.0210226336274918e-04 0.0000000000000000e+00  -5.4567315575968041e-03 7.0519173926218823e-04 0.0000000000000000e+00  -5.5246905588589431e-03 -4.5085077349317471e-04 0.0000000000000000e+00  -5.4601214029386304e-03 -1.6075834682185161e-03 0.0000000000000000e+00  -3.5043603120051524e-03 -1.5443386166940167e-03 0.0000000000000000e+00  -1.6469592897946110e-03 -1.5100791274225832e-03 0.0000000000000000e+00  1.6206937894059438e-04 -1.5037452836594593e-03 0.0000000000000000e+00  1.9714705707894798e-03 -1.5251321309465464e-03 0.0000000000000000e+00  3.8299811609117116e-03 -1.5748886513713366e-03 0.0000000000000000e+00  5.7875656799002504e-03 -1.6545196746799477e-03 0.0000000000000000e+00  5.8486470612349644e-03 -4.9855621240450061e-04 0.0000000000000000e+00  5.7767793247465622e-03 6.5751028719588679e-04 0.0000000000000000e+00  4.2075019307559955e-03 4.6724712475275089e-04 0.0000000000000000e+00  2.7463015827623939e-03 2.9939747639176650e-04 0.0000000000000000e+00  1.3557217102658872e-03 1.4611234019189866e-04 0.0000000000000000e+00  0.0000000000000000e+00 0.0000000000000000e+00 0.0000000000000000e+00  0.0000000000000000e+00 0.0000000000000000e+00 0.0000000000000000e+00  -6.5489405058720570e-04 2.0668071829042358e-04 0.0000000000000000e+00  -1.3278225475546563e-03 4.2202189507059660e-04 0.0000000000000000e+00  -2.0373603678100947e-03 6.5490615750068938e-04 0.0000000000000000e+00  -2.8028935674867211e-03 9.1466773755151669e-04 0.0000000000000000e+00  -2.8402908288514862e-03 -4.6543127561397601e-04 0.0000000000000000e+00  -2.8081634345526064e-03 -1.8459055156088762e-03 0.0000000000000000e+00  -1.7745921515461528e-03 -1.7655321724994830e-03 0.0000000000000000e+00  -7.9308494161054821e-04 -1.7197250851719329e-03 0.0000000000000000e+00  1.6284282557602780e-04 -1.7072939468384524e-03 0.0000000000000000e+00  1.1190204778230651e-03 -1.7279178122282621e-03 0.0000000000000000e+00  2.1012661437322454e-03 -1.7821450244410242e-03 0.0000000000000000e+00  3.1360314057634034e-03 -1.8713941626453162e-03 0.0000000000000000e+00  3.1638369271384278e-03 -4.9084912191583259e-04 0.0000000000000000e+00  