<?xml version="1.0"?>
<VTKFile type="UnstructuredGrid"  version="0.1"  >
<UnstructuredGrid>
<Piece  NumberOfPoints="589" NumberOfCells="1080">
<Points>
<DataArray  type="Float64"  NumberOfComponents="3"  format="ascii">-9 0 0  -8 0 0  -7 0 0  -6 0 0  -5 0 0  -4 0 0  -3 0 0  -2 0 0  -1 0 0  0 0 0  1 0 0  2 0 0  3 0 0  4 0 0  5 0 0  6 0 0  7 0 0  8 0 0  9 0 0  -9 2 0  -8.000000156455004 1.99999986921169 0  -7.000000336210197 1.999999740616747 0  -6.000000573915047 1.999999614280392 0  -5.00000093201364 1.999999484663709 0  -4.000000707867276 1.999999651724044 0  -3.000000443018878 1.999999737009053 0  -2.000000263840347 1.999999784953819 0  -1.000000130386652 1.999999820242836 0  -2.428196904925276e-08 1.999999834573041 0  1.000000079110358 1.999999825859165 0  2.000000202534987 1.999999795012606 0  3.000000365111331 1.999999748839457 0  4.000000579711274 1.99999968104096 0  5.000000860324659 1.999999606753534 0  6.000000528127676 1.999999678242681 0  7.000000308627312 1.99999977389533 0  8.000000143416148 1.99999988363729 0  9 2 0  -9 4 0  -8.000000219709186 3.999999729649982 0  -7.000000440621665 3.999999472199227 0  -6.000000666254949 3.999999241682184 0  -5.000000901727637 3.999999054869228 0  -4.000000658351873 3.999999092532667 0  -3.000000442006733 3.999999217464222 0  -2.000000269871431 3.999999379255294 0  -1.000000136514389 3.999999500040774 0  -3.009172953419958e-08 3.999999549302926 0  1.000000073965279 3.999999517629935 0  2.000000201445196 3.999999419149304 0  3.000000376029579 3.999999277743584 0  4.000000597104533 3.99999912973034 0  5.00000082434063 3.999999047881439 0  6.000000605468569 3.99999925983143 0  7.000000400097705 3.999999491433509 0  8.00000019965214 3.999999740791654 0  9 4 0  -9 6 0  -8.000000278150129 5.999999538491384 0  -7.000000526149933 5.999999096046993 0  -6.000000719237271 5.999998694267734 0  -5.000000847348694 5.999998358388048 0  -4.00000051476492 5.999998491528063 0  -3.000000288754545 5.999998788235166 0  -2.000000174446642 5.999999100322372 0  -1.000000113038994 5.999999283109343 0  -5.587345212950995e-08 5.999999331461882 0  1.000000013046105 5.999999271328809 0  2.000000106796355 5.999999110831824 0  3.000000230170392 5.999998853176617 0  4.000000410398266 5.999998586962107 0  5.000000708164801 5.999998465288466 0  6.000000628804726 5.999998762811948 0  7.0000004718669 5.999999137947587 0  8.000000252714402 5.999999558545361 0  9 6 0  -9 8 0  -8.00000045719222 7.999999271076301 0  -7.000000831328026 7.999998557234695 0  -6.000001032123398 7.99999788325539 0  -5.000000957288327 7.999997298579223 0  -4.000000503207527 7.999997884270703 0  -3.000000414345418 7.999998575401085 0  -2.000000403963317 7.999998946828785 0  -1.000000277039115 7.999999043141111 0  -7.164020482993791e-08 7.999999074600836 0  1.000000121892241 7.999999082710682 0  2.000000216552267 7.999998926776109 0  3.000000206959236 7.999998621678751 0  4.000000346073721 7.999998031155122 0  5.000000843389733 7.99999739988599 0  6.000000962451809 7.999997955344278 0  7.000000792494643 7.999998602613523 0  8.000000440024087 7.999999292871967 0  9 8 0  -9 10 0  -8.000000968458924 9.999998943333907 0  -7.000001829867789 9.999997858974682 0  -6.000002447529865 9.999996715032912 0  -5.000002612644716 9.999995469452427 0  -4.000002039690195 9.99999701781428 0  -3.000001828323402 9.999998397142067 0  -2.000001317113015 9.999998356390881 0  -1.000000668181721 9.999998342910198 0  -1.27680256450862e-07 9.999998342074186 0  1.000000410803581 9.999998327909818 0  2.000001042573714 9.999998269991798 0  3.000001765674269 9.999998535491283 0  4.000001983772866 9.999997211620208 0  5.000002579127494 9.999995585395594 0  6.000002452174082 9.999996780634483 0  7.000001843174806 9.999997895323768 0  8.000000977546975 9.999998959721076 0  9 10 0  -9 12 0  -8.000001907922263 11.99999872636547 0  -7.000003803389101 11.99999739904712 0  -6.000005673114353 11.99999595336875 0  -5.000007505377905 11.99999429879973 0  -4.000007355252325 11.99999654401104 0  -3.000007376656971 11.99999876497259 0  -2.000004834720224 11.99999848284219 0  -1.00000237815463 11.99999833855157 0  2.896884265251218e-08 11.99999830742621 0  1.000002461449688 11.99999838966413 0  2.000005004229346 11.99999862055356 0  3.00000773202797 11.99999909539501 0  4.000007761866936 11.99999666709713 0  5.000007819085885 11.99999423656091 0  6.000005870072903 11.99999592812638 0  7.000003920365345 11.9999973892041 0  8.0000019627436 11.99999872304519 0  9 12 0  -9 14 0  -8.000002897201604 13.99999872413345 0  -7.00000587986796 13.99999741256151 0  -6.000009048530984 13.99999602726993 0  -5.000012538494934 13.99999452664057 0  -4.000012671095257 13.9999964335129 0  -3.00001245123735 13.9999983859496 0  -2.000008010855713 13.99999805793775 0  -1.00000389036493 13.99999788153412 0  8.418882646796527e-08 13.99999781932705 0  1.000004070907748 13.99999785681478 0  2.000008225823993 13.99999799531158 0  3.000012713128502 13.99999824497181 0  4.000012980613692 13.99999635356311 0  5.000012897899046 13.999994494287 0  6.000009290733352 13.99999599757457 0  7.000006029203139 13.99999739203396 0  8.000002968421642 13.99999871391603 0  9 14 0  -9 16 0  -8.000003544615934 15.99999886472315 0  -7.000007212350167 15.99999772095524 0  -6.00001113872736 15.99999656252316 0  -5.000015484969483 15.99999538892767 0  -4.000015681927421 15.99999625461566 0  -3.000015375420481 15.99999710332283 0  -2.000009907445663 15.99999702660502 0  -1.000004818835136 15.99999696773373 0  9.0747821853189e-08 15.99999693245147 0  1.000005007583589 15.99999691993192 0  2.000010117881321 15.99999692541862 0  3.000015622368414 15.99999693898247 0  4.000015939754308 15.99999611567094 0  5.000015748168839 15.99999529363616 0  6.000011328831532 15.99999650233611 0  7.000007335034093 15.99999768517396 0  8.000003604653235 15.99999884797958 0  9 16 0  -9 18 0  -8.000003699552487 17.99999903927661 0  -7.00000751024937 17.99999808800514 0  -6.000011549449576 17.99999715842918 0  -5.000015946718652 17.9999962686669 0  -4.000016122190743 17.99999605162155 0  -3.000015864557126 17.99999583671824 0  -2.000010286594638 17.99999592393517 0  -1.000005031202496 17.99999595957788 0  6.829543276827284e-08 17.99999595452583 0  1.000005170418676 17.99999591102468 0  2.00001043319696 17.9999958232172 0  3.000016021680188 17.99999567644866 0  4.000016278296642 17.99999593314212 0  5.000016099192705 17.99999619805628 0  6.000011664754676 17.99999711054524 0  7.000007587189321 17.99999805844222 0  8.000003737969307 17.99999902518345 0  9 18 0  -9 20 0  -8.000003409908851 19.99999917602178 0  -7.000006894129487 19.99999836827197 0  -6.000010527879618 19.99999759507891 0  -5.000014387730065 19.99999687903026 0  -4.000014499525494 19.99999586738942 0  -3.000014331838615 19.99999485969703 0  -2.000009375474512 19.99999502756032 0  -1.00000461999067 19.99999511418781 0  3.534200361947279e-08 19.99999513039525 0  1.000004690639683 19.99999507934116 0  2.000009445705802 19.99999495685801 0  3.000014400351243 19.99999475128987 0  4.000014559666467 19.99999580095335 0  5.000014443159987 19.9999968553766 0  6.000010573177295 19.9999975771206 0  7.000006925957584 19.99999835633247 0  8.000003426280022 19.99999917008534 0  9 20 0  -9 22 0  -8.000002823017223 21.99999924785278 0  -7.000005679888616 21.99999851031082 0  -6.000008601902661 21.99999780314965 0  -5.000011614721627 21.99999714447948 0  -4.000011661769361 21.99999571196399 0  -3.000011591932519 21.9999942847575 0  -2.000007660841685 21.99999445612622 0  -1.000003808177947 21.99999455047576 0  2.528847795353435e-09 21.99999457530885 0  1.000003811791333 21.9999945333716 0  2.000007659906451 21.99999442283623 0  3.000011582697859 21.99999423738533 0  4.000011644070733 21.99999569869001 0  5.000011592993673 21.99999716287725 0  6.000008590542673 21.99999781382308 0  7.000005674554565 21.99999851605777 0  8.000002821000036 21.99999925033946 0  9 22 0  -9 24 0  -8.000002100709285 23.99999926126245 0  -7.000004205076194 23.99999853082587 0  -6.000006312703468 23.99999781725555 0  -5.000008414651877 23.99999712960066 0  -4.00000842139203 23.9999955957502 0  -3.000008428359056 23.99999406803279 0  -2.000005632505993 23.99999419276695 0  -1.000002828539999 23.99999426482791 0  -2.45069428430857e-08 23.99999428730217 0  1.000002777535226 23.99999426179288 0  2.00000557540761 23.99999418847457 0  3.000008360706156 23.9999940662611 0  4.000008348496542 23.99999561838319 0  5.000008341099464 23.99999717294183 0  6.00000626205398 23.99999784536919 0  7.000004173416409 23.99999854759464 0  8.000002085502606 23.99999926907783 0  9 24 0  -9 26 0  -8.000001363771958 25.99999924146815 0  -7.000002717218099 25.99999848387572 0  -6.00000404621911 25.99999772769933 0  -5.000005328740968 25.99999697242337 0  -4.00000532892909 25.99999552318046 0  -3.000005380239592 25.99999408000214 0  -2.000003636626063 25.99999414009941 0  -1.000001849172101 25.99999417752601 0  -4.357922925370085e-08 25.99999419122881 0  1.000001759959906 25.99999418144942 0  2.000003541207546 25.99999414969261 0  3.000005274333203 25.99999409892247 0  4.000005222140948 25.99999555700652 0  5.000005224973598 25.99999701771016 0  6.000003971932701 25.99999775772267 0  7.000002669383296 25.99999850210029 0  8.000001340361441 25.99999925006017 0  9 26 0  -9 28 0  -8.000000668139233 27.99999921791617 0  -7.000001327141218 27.99999843126141 0  -6.000001965620813 27.99999763454134 0  -5.000002567526672 27.99999682033581 0  -4.000002591247598 27.99999549357205 0  -3.000002656326895 27.99999417220806 0  -2.00000181611051 27.99999417811422 0  -1.00000094236122 27.99999418511899 0  -5.443672914711088e-08 27.99999418908397 0  1.000000831551599 27.99999418901542 0  2.000001699497649 27.99999418696369 0  3.000002530067318 27.99999418821158 0  4.000002467596399 27.99999551614679 0  5.000002449657059 27.99999684745638 0  6.000001879845255 27.99999765261559 0  7.000001271240531 27.99999844227694 0  8.000000640579897 27.99999922312271 0  9 28 0  -9
[...]
<PointData  Vectors="f_42"> 
<DataArray  type="Float64"  Name="f_42"  NumberOfComponents="3" format="ascii">0.0000000000000000e+00 0.0000000000000000e+00 0.0000000000000000e+00  0.0000000000000000e+00 0.0000000000000000e+00 0.0000000000000000e+00  0.0000000000000000e+00 0.0000000000000000e+00 0.0000000000000000e+00  0.0000000000000000e+00 0.0000000000000000e+00 0.0000000000000000e+00  0.0000000000000000e+00 0.0000000000000000e+00 0.0000000000000000e+00  0.0000000000000000e+00 0.0000000000000000e+00 0.0000000000000000e+00  0.0000000000000000e+00 0.0000000000000000e+00 0.0000000000000000e+00  0.0000000000000000e+00 0.0000000000000000e+00 0.0000000000000000e+00  0.0000000000000000e+00 0.0000000000000000e+00 0.0000000000000000e+00  0.0000000000000000e+00 0.0000000000000000e+00 0.0000000000000000e+00  0.0000000000000000e+00 0.0000000000000000e+00 0.0000000000000000e+00  0.0000000000000000e+00 0.0000000000000000e+00 0.0000000000000000e+00  0.0000000000000000e+00 0.0000000000000000e+00 0.0000000000000000e+00  0.0000000000000000e+00 0.0000000000000000e+00 0.0000000000000000e+00  0.0000000000000000e+00 0.0000000000000000e+00 0.0000000000000000e+00  0.0000000000000000e+00 0.0000000000000000e+00 0.0000000000000000e+00  0.0000000000000000e+00 0.0000000000000000e+00 0.0000000000000000e+00  0.0000000000000000e+00 0.0000000000000000e+00 0.0000000000000000e+00  0.0000000000000000e+00 0.0000000000000000e+00 0.0000000000000000e+00  0.0000000000000000e+00 0.0000000000000000e+00 0.0000000000000000e+00  -1.5645500219745269e-07 -1.3078831037493017e-07 0.0000000000000000e+00  -3.3621019434964158e-07 -2.5938325285168784e-07 0.0000000000000000e+00  -5.7391504612276045e-07 -3.8571960792307458e-07 0.0000000000000000e+00  -9.3201364022440980e-07 -5.1533629199620868e-07 0.0000000000000000e+00  -7.0786727607982271e-07 -3.4827595635804595e-07 0.0000000000000000e+00  -4.4301887840160073e-07 -2.6299094660414661e-07 0.0000000000000000e+00  -2.6384034649449630e-07 -2.1504618105011722e-07 0.0000000000000000e+00  -1.3038665217260758e-07 -1.7975716405196203e-07 0.0000000000000000e+00  -2.4281969049252761e-08 -1.6542695955070744e-07 0.0000000000000000e+00  7.9110358303365684e-08 -1.7414083502284658e-07 0.0000000000000000e+00  2.0253498785028321e-07 -2.0498739394934654e-07 0.0000000000000000e+00  3.6511133088959188e-07 -2.5116054305581623e-07 0.0000000000000000e+00  5.7971127382305689e-07 -3.1895904007746614e-07 0.0000000000000000e+00  8.6032465959092219e-07 -3.9324646637139440e-07 0.0000000000000000e+00  5.2812767489258594e-07 -3.2175731934297974e-07 0.0000000000000000e+00  3.0862731326056711e-07 -2.2610466958117193e-07 0.0000000000000000e+00  1.4341614761853336e-07 -1.1636271020188374e-07 0.0000000000000000e+00  0.0000000000000000e+00 0.0000000000000000e+00 0.0000000000000000e+00  0.0000000000000000e+00 0.0000000000000000e+00 0.0000000000000000e+00  -2.1970918329568414e-07 -2.7035001824154441e-07 0.0000000000000000e+00  -4.4062166490627955e-07 -5.2780077378867513e-07 0.0000000000000000e+00  -6.6625494767549694e-07 -7.5831781615425227e-07 0.0000000000000000e+00  -9.0172763819533096e-07 -9.4513077132504718e-07 0.0000000000000000e+00  -6.5835187294612620e-07 -9.0746733387511661e-07 0.0000000000000000e+00  -4.4200673341974906e-07 -7.8253577737843653e-07 0.0000000000000000e+00  -2.6987143115683934e-07 -6.2074470616696090e-07 0.0000000000000000e+00  -1.3651438909362899e-07 -4.9995922681177698e-07 0.0000000000000000e+00  -3.0091729534199584e-08 -4.5069707384012169e-07 0.0000000000000000e+00  7.3965279018075373e-08 -4.8237006466601255e-07 0.0000000000000000e+00  2.0144519631741618e-07 -5.8085069567559602e-07 0.0000000000000000e+00  3.7602957908424814e-07 -7.2225641705085484e-07 0.0000000000000000e+00  5.9710453200144726e-07 -8.7026965962117998e-07 0.0000000000000000e+00  8.2434062890217700e-07 -9.5211856076149146e-07 0.0000000000000000e+00  6.0546856811225577e-07 -7.4016856916315584e-07 0.0000000000000000e+00  4.0009770600444113e-07 -5.0856648945036030e-07 0.0000000000000000e+00  1.9965214184014223e-07 -2.5920834643953634e-07 0.0000000000000000e+00  0.0000000000000000e+00 0.0000000000000000e+00 0.0000000000000000e+00  0.0000000000000000e+00 0.0000000000000000e+00 0.0000000000000000e+00  -2.7815012871114343e-07 -4.6150861612331796e-07 0.0000000000000000e+00  -5.2614993150754161e-07 -9.0395300528981268e-07 0.0000000000000000e+00  -7.1923727086054325e-07 -1.3057322672646003e-06 0.0000000000000000e+00  -8.4734869421281348e-07 -1.6416119518168535e-06 0.0000000000000000e+00  -5.1476491932859017e-07 -1.5084719343935259e-06 0.0000000000000000e+00  -2.8875454499368136e-07 -1.2117648337385075e-06 0.0000000000000000e+00  -1.7444664154008321e-07 -8.9967762871051463e-07 0.0000000000000000e+00  -1.1303899422206748e-07 -7.1689065606027270e-07 0.0000000000000000e+00  -5.5873452129509947e-08 -6.6853811855276823e-07 0.0000000000000000e+00  1.3046104317573934e-08 -7.2867119038165388e-07 0.0000000000000000e+00  1.0679635483703947e-07 -8.8916817807720056e-07 0.0000000000000000e+00  2.3017039139918108e-07 -1.1468233821239358e-06 0.0000000000000000e+00  4.1039826566771986e-07 -1.4130378926306966e-06 0.0000000000000000e+00  7.0816480342720103e-07 -1.5347115330432513e-06 0.0000000000000000e+00  6.2880472487486465e-07 -1.2371880522872410e-06 0.0000000000000000e+00  4.7186689868118678e-07 -8.6205241325861730e-07 0.0000000000000000e+00  2.5271440011076371e-07 -4.4145463978295270e-07 0.0000000000000000e+00  0.0000000000000000e+00 0.0000000000000000e+00 0.0000000000000000e+00  0.0000000000000000e+00 0.0000000000000000e+00 0.0000000000000000e+00  -4.5719222297796602e-07 -7.2892369864153271e-07 0.0000000000000000e+00  -8.3132802525542628e-07 -1.4427653065962425e-06 0.0000000000000000e+00  -1.0321233992413444e-06 -2.1167446114273448e-06 0.0000000000000000e+00  -9.5728832786815566e-07 -2.7014207777485899e-06 0.0000000000000000e+00  -5.0320752685576161e-07 -2.1157292957345597e-06 0.0000000000000000e+00  -4.1434541747034045e-07 -1.4245989132341380e-06 0.0000000000000000e+00  -4.0396331748458743e-07 -1.0531712162193410e-06 0.0000000000000000e+00  -2.7703911512616039e-07 -9.5685889094495488e-07 0.0000000000000000e+00  -7.1640204829937914e-08 -9.2539916331480561e-07 0.0000000000000000e+00  1.2189224134622487e-07 -9.1728931660926020e-07 0.0000000000000000e+00  2.1655226578221267e-07 -1.0732238908522555e-06 0.0000000000000000e+00  2.0695923601590583e-07 -1.3783212484656985e-06 0.0000000000000000e+00  3.4607372078737347e-07 -1.9688448788288447e-06 0.0000000000000000e+00  8.4338973163001502e-07 -2.6001140114018816e-06 0.0000000000000000e+00  9.6245181026441065e-07 -2.0446557213496496e-06 0.0000000000000000e+00  7.9249464399666045e-07 -1.3973864769238436e-06 0.0000000000000000e+00  4.4002408589434962e-07 -7.0712803133072117e-07 0.0000000000000000e+00  0.0000000000000000e+00 0.0000000000000000e+00 0.0000000000000000e+00  0.0000000000000000e+00 0.0000000000000000e+00 0.0000000000000000e+00  -9.6845892357136808e-07 -1.0566660962785458e-06 0.0000000000000000e+00  -1.8298677872883039e-06 -2.1410253167150562e-06 0.0000000000000000e+00  -2.4475298627187803e-06 -3.2849670877208797e-06 0.0000000000000000e+00  -2.6126447139353803e-06 -4.5305475715975224e-06 0.0000000000000000e+00  -2.0396901945189787e-06 -2.9821857224903348e-06 0.0000000000000000e+00  -1.8283234035576918e-06 -1.6028579329308136e-06 0.0000000000000000e+00  -1.3171130144954749e-06 -1.6436091177728752e-06 0.0000000000000000e+00  -6.6818172050634643e-07 -1.6570898025833796e-06 0.0000000000000000e+00  -1.2768025645086200e-07 -1.6579258169182533e-06 0.0000000000000000e+00  4.1080358160358723e-07 -1.6720901812169058e-06 0.0000000000000000e+00  1.0425737131827491e-06 -1.7300082030759225e-06 0.0000000000000000e+00  1.7656742681736245e-06 -1.4645087165272073e-06 0.0000000000000000e+00  1.9837728660782193e-06 -2.7883797917603805e-06 0.0000000000000000e+00  2.5791274939486715e-06 -4.4146044099210063e-06 0.0000000000000000e+00  2.4521740805350699e-06 -3.2193655151732657e-06 0.0000000000000000e+00  1.8431748071957927e-06 -2.1046762321577668e-06 0.0000000000000000e+00  9.7754697133237000e-07 -1.0402789234387409e-06 0.0000000000000000e+00  0.0000000000000000e+00 0.0000000000000000e+00 0.0000000000000000e+00  0.0000000000000000e+00 0.0000000000000000e+00 0.0000000000000000e+00  -1.9079222628911520e-06 -1.2736345246788692e-06 0.0000000000000000e+00  -3.8033891006852672e-06 -2.6009528755782995e-06 0.0000000000000000e+00  -5.6731143540625205e-06 -4.0466312452404016e-06 0.0000000000000000e+00  -7.5053779047155036e-06 -5.7012002709350092e-06 0.0000000000000000e+00  -7.3552523263231386e-06 -3.4559889611246973e-06 0.0000000000000000e+00  -7.3766569715666641e-06 -1.2350274099451706e-06 0.0000000000000000e+00  -4.8347202240358983e-06 -1.5171578091139524e-06 0.0000000000000000e+00  -2.3781546301506371e-06 -1.6614484277075250e-06 0.0000000000000000e+00  2.8968842652512180e-08 -1.6925737857201290e-06 0.0000000000000000e+00  2.4614496878035926e-06 -1.6103358725175866e-06 0.0000000000000000e+00  5.0042293454942619e-06 -1.3794464353133796e-06 0.0000000000000000e+00  7.7320279693915206e-06 -9.0460499313816134e-07 0.0000000000000000e+00  7.7618669375039109e-06 -3.3329028728544446e-06 0.0000000000000000e+00  7.8190858843948760e-06 -5.7634390903390316e-06 0.0000000000000000e+00  5.8700729037443052e-06 -4.0718736211160484e-06 0.0000000000000000e+00  3.9203653463813453e-06 -2.6107958974251782e-06 0.0000000000000000e+00  1.9627435983200182e-06 -1.2769548080044192e-06 0.0000000000000000e+00  0.0000000000000000e+00 0.0000000000000000e+00 0.0000000000000000e+00  0.0000000000000000e+00 0.0000000000000000e+00 0.0000000000000000e+00  -2.8972016030288711e-06 -1.2758665533613119e-06 0.0000000000000000e+00  -5.8798679611237400e-06 -2.5874384833821664e-06 0.0000000000000000e+00  -9.0485309826478758e-06 -3.9727300749086306e-06 0.0000000000000000e+00  -1.2538494935200738e-05 -5.4733594289806005e-06 0.0000000000000000e+00  -1.2671095257693748e-05 -3.5664870957445334e-06 0.0000000000000000e+00  -1.2451237350808656e-05 -1.6140504046527141e-06 0.0000000000000000e+00  -8.0108557130590302e-06 -1.9420622519027169e-06 0.0000000000000000e+00  -3.8903649303360532e-06 -2.1184658793238860e-06 0.0000000000000000e+00  8.4188826467965273e-08 -2.1806729472063795e-06 0.0000000000000000e+00  4.0709077474868869e-06 -2.1431852132742609e-06 0.0000000000000000e+00  8.2258239930665160e-06 -2.0046884195693494e-06 0.0000000000000000e+00  1.2713128503089736e-05 -1.7550281916454292e-06 0.0000000000000000e+00  1.2980613691709901e-05 -3.6464368940289361e-06 0.0000000000000000e+00  1.2897899045497370e-05 -5.5057130021553865e-06 0.0000000000000000e+00  9.2907333534200394e-06 -4.0024254346508988e-06 0.0000000000000000e+00  6.0292031380397631e-06 -2.6079660345363214e-06 0.0000000000000000e+00  2.9684216391266760e-06 -1.2860839724039101e-06 0.0000000000000000e+00  0.0000000000000000e+00 0.0000000000000000e+00 0.0000000000000000e+00  0.0000000000000000e+00 0.0000000000000000e+00 0.0000000000000000e+00  -3.5446159331339511e-06 -1.1352768503037869e-06 0.0000000000000000e+00  -7.2123501665634663e-06 -2.2790447593306448e-06 0.0000000000000000e+00  -1.1138727359711538e-05 -3.4374768427415148e-06 0.0000000000000000e+00  -1.5484969483937048e-05 -4.6110723377764604e-06 0.0000000000000000e+00  -1.5681927421165273e-05 -3.7453843361291375e-06 0.0000000000000000e+00  -1.5375420480372422e-05 -2.8966771704648539e-06 0.0000000000000000e+00  -9.9074456620681964e-06 -2.9733949773424030e-06 0.0000000000000000e+00  -4.8188351358830695e-06 -3.0322662706535960e-06 0.0000000000000000e+00  9.0747821853188996e-08 -3.0675485290667441e-06 0.0000000000000000e+00  5.0075835893010751e-06 -3.0800680793720511e-06 0.0000000000000000e+00  1.0117881319851016e-05 -3.0745813809489894e-06 0.0000000000000000e+00  1.5622368414224340e-05 -3.0610175296501397e-06 0.0000000000000000e+00  1.5939754308555180e-05 -3.8843290641195907e-06 0.0000000000000000e+00  1.5748168840299966e-05 -4.7063638414808928e-06 0.0000000000000000e+00  1.1328831531807656e-05 -3.4976638873208217e-06 0.0000000000000000e+00  7.3350340939953154e-06 -2.3148260479452041e-06 0.0000000000000000e+00  3.6046532384642735e-06 -1.1520204204119014e-06 0.0000000000000000e+00  0.0000000000000000e+00 0.0000000000000000e+00 0.0000000000000000e+00  0.0000000000000000e+00 0.0000000000000000e+00 0.0000000000000000e+00  -3.6995524840037931e-06 -9.6072338205810146e-07 0.0000000000000000e+00  -7.5102493697183461e-06 -1.9119948596814572e-06 0.0000000000000000e+00  -1.1549449576232711e-05 -2.8415708202821510e-06 0.0000000000000000e+00  -1.5946718653344549e-05 -3.7313330980663466e-06 0.0000000000000000e+00  -1.6122190742013509e-05 -3.9483784511905816e-06 0.0000000000000000e+00  -1.5864557125700031e-05 -4.1632817574665875e-06 0.0000000000000000e+00  -1.0286594637620273e-05 -4.0760648309659813e-06 0.0000000000000000e+00  -5.0312024962821161e-06 -4.0404221258445537e-06 0.0000000000000000e+00  6.8295432768272842e-08 -4.0454741760686613e-06 0.0000000000000000e+00  5.1704186759418597e-06 -4.0889753288058405e-06 0.0000000000000000e+00  1.0433196959667824e-05 -4.1767827968767378e-06 0.0000000000000000e+00  1.6021680187767212e-05 -4.3235513428069068e-06 0.0000000000000000e+00  1.6278296640389308e-05 -4.0668578769212051e-06 0.0000000000000000e+00  1.6099192704973119e-05 -3.8019437201770830e-06 0.0000000000000000e+00  1.1664754674343940e-05 -2.8894547624991561e-06 0.0000000000000000e+00  7.5871893239259471e-06 -1.9415577721170857e-06 0.0000000000000000e+00  3.7379693023984073e-06 -9.7481654181625721e-07 0.0000000000000000e+00  0.0000000000000000e+00 0.0000000000000000e+00 0.0000000000000000e+00  0.0000000000000000e+00 0.0000000000000000e+00 0.0000000000000000e+00  -3.4099088483537448e-06 -8.2397821666234116e-07 0.0000000000000000e+00  -6.8941294878073593e-06 -1.6317280345449654e-06 0.0000000000000000e+00  -1.0527879620092352e-05 -2.4049210867697781e-06 0.0000000000000000e+00  -1.4387730064050561e-05 -3.1209697411430343e-06 0.0000000000000000e+00  -1.4499525494928804e-05 -4.1326105803498084e-06 0.0000000000000000e+00  -1.4331838615048302e-05 -5.1403029712366936e-06 0.0000000000000000e+00  -9.3754745111386329e-06 -4.9724396810089170e-06 0.0000000000000000e+00  -4.6199906703414839e-06 -4.8858121929694860e-06 0.0000000000000000e+00  3.5342003619472792e-08 -4.8696047424688797e-06 0.0000000000000000e+00  4.6906396832153298e-06 -4.9206588429155441e-06 0.0000000000000000e+00  9.4457058020637516e-06 -5.0431419851329657e-06 0.0000000000000000e+00  1.4400351242493518e-05 -5.2487101377956452e-06 0.0000000000000000e+00  1.4559666465500625e-05 -4.1990466608757442e-06 0.0000000000000000e+00  1.4443159987059471e-05 -3.1446234018497481e-06 0.0000000000000000e+00  1.0573177295203402e-05 -2.4228794052075157e-06 0.0000000000000000e+00  6.9259575834936705e-06 -1.6436675339856303e-06 0.0000000000000000e+00  3.4262800212399318e-06 -8.2991466237421780e-07 0.0000000000000000e+00  0.0000000000000000e+00 0.0000000000000000e+00 0.0000000000000000e+00  0.0000000000000000e+00 0.0000000000000000e+00 0.0000000000000000e+00  -2.8230172202276118e-06 -7.5214721797097762e-07 0.0000000000000000e+00  -5.6798886165335399e-06 -1.4896891866031402e-06 0.0000000000000000e+00  -8.6019026602184401e-06 -2.1968503501346090e-06 0.0000000000000000e+00  -1.1614721627119962e-05 -2.8555205247169739e-06 0.0000000000000000e+00  -1.1661769358909142e-05 -4.2880360108221220e-06 0.0000000000000000e+00  -1.1591932519527601e-05 -5.7152424972188244e-06 0.0000000000000000e+00  -7.6608416834325011e-06 -5.5438737781570559e-06 0.0000000000000000e+00  -3.8081779470901793e-06 -5.4495242352309139e-06 0.0000000000000000e+00  2.5288477953534355e-09 -5.4246911515574583e-06 0.0000000000000000e+00  3.8117913332324655e-06 -5.4666283967735939e-06 0.0000000000000000e+00  7.6599064507401726e-06 -5.5771637726507610e-06 0.0000000000000000e+00  1.1582697858561935e-05 -5.7626146723518680e-06 0.0000000000000000e+00  1.1644070734111004e-05 -4.3013099897020534e-06 0.0000000000000000e+00  1.1592993674777464e-05 -2.8371227431365742e-06 0.0000000000000000e+00  8.5905426748194059e-06 -2.1861769210668453e-06 0.0000000000000000e+00  5.6745545672238173e-06 -1.4839422182188675e-06 0.0000000000000000e+00  2.8210000348287786e-06 -7.4966053839600389e-07 0.0000000000000000e+00  0.0000000000000000e+00 0.0000000000000000e+00 0.0000000000000000e+00  0.0000000000000000e+00 0.0000000000000000e+00 0.0000000000000000e+00  -2.1007092839562282e-06 -7.3873754695296739e-07 0.0000000000000000e+00  -4.2050761943047527e-06 -1.4691741245642053e-06 0.0000000000000000e+00  -6.3127034683809412e-06 -2.1827444491171193e-06 0.0000000000000000e+00  -8.4146518748804363e-06 -2.8703993304330337e-06 0.0000000000000000e+00  -8.4213920305714487e-06 -4.4042498005138791e-06 0.0000000000000000e+00  -8.4283590567295437e-06 -5.9319672043150752e-06 0.0000000000000000e+00  -5.6325059929121566e-06 -5.8072330510181602e-06 0.0000000000000000e+00  -2.8285399990753618e-06 -5.7351720934421436e-06 0.0000000000000000e+00  -2.4506942843085698e-08 -5.7126978384695717e-06 0.0000000000000000e+00  2.7775352254529164e-06 -5.7382071182947448e-06 0.0000000000000000e+00  5.5754076101788581e-06 -5.8115254256790218e-06 0.0000000000000000e+00  8.3607061551246746e-06 -5.9337389031844294e-06 0.0000000000000000e+00  8.3484965407834711e-06 -4.3816168050372131e-06 0.0000000000000000e+00  8.3410994650443012e-06 -2.8270581772086384e-06 0.0000000000000000e+00  6.2620539823587793e-06 -2.1546308040889546e-06 0.0000000000000000e+00  4.1734164095191069e-06 -1.4524053615771311e-06 0.0000000000000000e+00  2.0855026057238496e-06 -7.3092217198166441e-07 0.0000000000000000e+00  0.0000000000000000e+00 0.0000000000000000e+00 0.0000000000000000e+00  0.0000000000000000e+00 0.0000000000000000e+00 0.0000000000000000e+00  -1.3637719585763361e-06 -7.5853185382351058e-07 0.0000000000000000e+00  -2.7172181006485363e-06 -1.5161242826500383e-06 0.0000000000000000e+00  -4.0462191107669057e-06 -2.2723006713210207e-06 0.0000000000000000e+00  -5.3287409679856748e-06 -3.0275766254761920e-06 0.0000000000000000e+00  -5.3289290908371110e-06 -4.4768195313544857e-06 0.0000000000000000e+00  -5.3802395916991011e-06 -5.9199978586438955e-06 0.0000000000000000e+00  -3.6366260629132226e-06 -5.8599005874143839e-06 0.0000000000000000e+00  -1.8491721008885469e-06 -5.8224739956875252e-06 0.0000000000000000e+00  -4.3579229253700846e-08 -5.8087711911150198e-06 0.0000000000000000e+00  1.7599599054636891e-06 -5.8185505771623824e-06 0.0000000000000000e+00  3.5412075451914581e-06 -5.8503073875744886e-06 0.0000000000000000e+00  5.2743332028736319e-06 -5.9010775396190956e-06 0.0000000000000000e+00  5.2221409477002853e-06 -4.4429934799588636e-06 0.0000000000000000e+00  5.2249735975775297e-06 -2.9822898445116640e-06 0.0000000000000000e+00  3.9719327002379727e-06 -2.2422773355807725e-06 0.0000000000000000e+00  2.6693832970919925e-06 -1.4978997087015888e-06 0.0000000000000000e+00  1.3403614440905478e-06 -7.4993983347154629e-07 0.0000000000000000e+00  0.0000000000000000e+00 0.0000000000000000e+00 0.0000000000000000e+00  0.0000000000000000e+00 0.0000000000000000e+00 0.0000000000000000e+00  -6.6813923192410544e-07 -7.8208382711862451e-07 0.0000000000000000e+00  -1.3271412191119596e-06 -1.5687385903100193e-06 0.0000000000000000e+00  -1.9656208131865843e-06 -2.3654586572267633e-06 0.0000000000000000e+00  -2.5675266716154989e-06 -3.1796641967480804e-06 0.0000000000000000e+00  -2.5912475973678758e-06 -4.5064279560024225e-06 0.0000000000000000e+00  -2.6563268945956774e-06 -5.8277919435424471e-06 0.0000000000000000e+00  -1.8161105091680985e-06 -5.8218857862240275e-06 0.0000000000000000e+00  -9.4236122040719183e-07 -5.8148810079626134e-06 0.0000000000000000e+00  -5.4436729147110885e-08 -5.8109160326297464e-06 0.0000000000000000e+00  8.3155159901345881e-07 -5.8109845814516395e-06 0.0000000000000000e+00  1.6994976492300845e-06 -5.8130363107211730e-06 0.0000000000000000e+00  2.5300673179710213e-06 -5.8117884302920542e-06 0.0000000000000000e+00  2.4675963