<?xml version="1.0"?>
<VTKFile type="UnstructuredGrid"  version="0.1"  >
<UnstructuredGrid>
<Piece  NumberOfPoints="589" NumberOfCells="1080">
<Points>
<DataArray  type="Float64"  NumberOfComponents="3"  format="ascii">-9 0 0  -8 0 0  -7 0 0  -6 0 0  -5 0 0  -4 0 0  -3 0 0  -2 0 0  -1 0 0  0 0 0  1 0 0  2 0 0  3 0 0  4 0 0  5 0 0  6 0 0  7 0 0  8 0 0  9 0 0  -9 2 0  -8.000003472030706 1.999995061592684 0  -7.00000728997575 1.99999070128098 0  -6.000012232884124 1.999987384982472 0  -5.000020053368295 1.999985305839761 0  -4.000012240460587 1.999989113493741 0  -3.000004145394918 1.999992558827146 0  -2.000000088757454 1.99999572129528 0  -0.9999991848758258 1.999998218279982 0  -2.519874081524591e-07 1.999999322194744 0  0.9999985234196309 1.999998598798235 0  1.999998895018789 1.999996232542493 0  3.000002042255412 1.999993323357408 0  4.000008328178762 1.999990211701729 0  5.000017345672809 1.999988969482232 0  6.000010435469855 1.999989472265937 0  7.000006179984114 1.999991897119589 0  8.000002940850726 1.999995618715632 0  9 2 0  -9 4 0  -8.000005560367986 3.999987810937522 0  -7.000010080098324 3.999977226610827 0  -6.00001295544206 3.999969821396485 0  -5.000014319802338 3.999967102016421 0  -4.000003143113231 3.999968840733845 0  -2.999995533911857 3.999978299916916 0  -1.999993293582067 3.999990590955516 0  -0.9999957132366443 4.000000464384311 0  -6.835126479673878e-07 4.000004475808193 0  0.9999942214762652 4.000001467982369 0  1.999991379251846 3.999993228820837 0  2.999993158706756 3.999982068094184 0  4.000000261904812 3.999970894254087 0  5.00001092084698 3.99996728693253 0  6.000010252030085 3.9999712563343 0  7.000008294521101 3.999978607406401 0  8.00000468851564 3.999988598820389 0  9 4 0  -9 6 0  -8.000011811092083 5.999974141973907 0  -7.000019447759854 5.999951036073417 0  -6.000019721954478 5.999933515023256 0  -5.000011716491463 5.999924299330317 0  -3.999990240815762 5.999938244864289 0  -2.999980322553863 5.9999673010494 0  -1.999983837796385 5.999997740644403 0  -0.9999930315570711 6.000014675092155 0  -2.325973514932382e-06 6.000018134548639 0  0.9999893768883976 6.000012732062705 0  1.999983151247405 5.999997747723235 0  2.999980993944816 5.99997246589025 0  3.99998622037666 5.999946307183021 0  5.000004400412324 5.999933508090082 0  6.000015223361457 5.999939514243659 0  7.000017002886737 5.999954756929074 0  8.000010765982291 5.999975940439474 0  9 6 0  -9 8 0  -8.000034757593085 7.999949467386351 0  -7.000058264250906 7.999902509218778 0  -6.000059606529674 7.99986399024454 0  -5.000029415870467 7.999841942212688 0  -3.999988207125124 7.999906013032255 0  -2.999995534793686 7.999981301839997 0  -2.000010726629366 8.000018027116582 0  -1.000011844699912 8.000022265284441 0  -2.497063753005622e-06 8.000023490016094 0  1.000004606790678 8.000027081638386 0  2.000002095328638 8.000011930914185 0  2.999984764566709 7.999986053318922 0  3.999979241413681 7.999922214690216 0  5.000019500722912 7.999850282595444 0  6.000056366261005 7.999870830182764 0  7.000057774527146 7.999907146332386 0  8.000034957657833 7.999951780269995 0  9 8 0  -9 10 0  -8.000102693480036 9.99991050661257 0  -7.000185722697434 9.999820243776476 0  -6.000225608279873 9.999728611223869 0  -5.000189642298047 9.999635400431828 0  -4.000124469609646 9.999841795013147 0  -3.000134670765942 10.00001939947529 0  -2.000107932511057 9.999989081573936 0  -1.000050582028063 9.99997935905432 0  -8.306371841585907e-06 9.999976998855921 0  1.000033564742008 9.99997716606487 0  2.000089032683692 9.999976031121296 0  3.000138251534647 10.00003874378453 0  4.000132892201873 9.999872266130323 0  5.000206061793926 9.999652934696824 0  6.000239308154559 9.999739095094821 0  7.000195427757326 9.999826277581436 0  8.00010770007149 9.999913285192408 0  9 10 0  -9 12 0  -8.000249220169119 11.99987464826651 0  -7.000485647710348 11.99974349868473 0  -6.00069480727792 11.99959961701471 0  -5.000858777708475 11.99943332841678 0  -4.000825429227193 11.99980906179932 0  -3.000855075610914 12.00018112660233 0  -2.000589330659528 12.00013586632191 0  -1.000293794914093 12.00011113036492 0  1.311500666764283e-05 12.00010585740748 0  1.000323304501089 12.00012078373192 0  2.000630034343327 12.00016037875473 0  3.000919870790714 12.00023587314704 0  4.000889120062581 11.99983804695184 0  5.000910093995167 11.99943705080168 0  6.000730610104545 11.99960332474859 0  7.000508396512462 11.99974614102127 0  8.000260286871649 11.99987598161377 0  9 12 0  -9 14 0  -8.000446780909529 13.99986200905974 0  -7.000894426473949 13.99971772991565 0  -6.001344390069173 13.99956032048492 0  -5.001799705711026 13.9993818557346 0  -4.001804143734939 13.99982052325521 0  -3.00180640042721 14.00026478722169 0  -2.001190148453223 14.00020060506129 0  -1.000582618605931 14.00016509476165 0  2.144667902307412e-05 14.00015395998607 0  1.000627077100903 14.00016577685069 0  2.001238981236738 14.00020120132858 0  3.00186094648393 14.00026217980135 0  4.001866719574466 13.99982247123653 0  5.001869385887568 13.99938556100134 0  6.001392508086839 13.99956149066546 0  7.000924760533647 13.99971797020648 0  8.000461464790051 13.99986200133212 0  9 14 0  -9 16 0  -8.000640697122282 15.99987454101884 0  -7.001293627303671 15.99974452109711 0  -6.001972072856361 15.99960530347441 0  -5.002691507861105 15.99945218234432 0  -4.002716748383957 15.99982628654044 0  -3.002692393625672 16.00019837537977 0  -2.001756555805731 16.00015080455216 0  -1.00085779532795 16.0001216761661 0  2.352244732214488e-05 16.00011036327739 0  1.000905972123437 16.00011644484509 0  2.001808145927495 16.00013991290924 0  3.002749829728255 16.00018107876124 0  4.002777407973476 15.99981101999523 0  5.00275394415247 15.99944065331511 0  6.002017341754884 15.9995975276099 0  7.001322988366155 15.99973964254823 0  8.000655122749075 15.99987217689507 0  9 16 0  -9 18 0  -8.000785487079515 17.99990532136703 0  -7.001590415645947 17.99980812199245 0  -6.002435235681429 17.99970593089479 0  -5.003342424704489 17.9995963950257 0  -4.003380646076156 17.99982744938804 0  -3.00334352745439 18.00005818803106 0  -2.002175262650835 18.00002735497677 0  -1.001063487934762 18.00000712050257 0  2.105666012251109e-05 17.99999731212161 0  1.001106224920679 17.99999768730315 0  2.002219832887933 18.00000794841768 0  3.003391008856997 18.0000276874525 0  4.003430385564555 17.99980226301695 0  5.003393327433388 17.99957750105667 0  6.002472562166274 17.99969264637527 0  7.001614877840455 17.99979966454041 0  8.000797588279639 17.99990120718202 0  9 18 0  -9 20 0  -8.000852330232471 19.99994618134228 0  -7.001727280997152 19.99989169389856 0  -6.002648336283598 19.99983594684916 0  -5.003640710448211 19.99977850688783 0  -4.00368430431522 19.99982712640032 0  -3.003641117422815 19.9998754356236 0  -2.002368692242104 19.99986159886504 0  -1.001160586285735 19.99985095071279 0  1.608044714590671e-05 19.99984361703649 0  1.00119300961211 19.999839473168 0  2.002401884233556 19.99983815252669 0  3.00367553232784 19.99983902569783 0  4.003719496069882 19.9997976090398 0  5.003676410076097 19.99975666934037 0  6.002674827044974 19.99982028537982 0  7.001744799602071 19.99988159404239 0  8.00086104551538 19.99994123344172 0  8.999999999993671 19.99999999999844 0  -9 22 0  -8.000828524956386 21.99998971260143 0  -7.001679374739716 21.99998030277516 0  -6.002575570226372 21.99997273413237 0  -5.003541522532819 21.99996814397142 0  -4.003584115252002 21.99982502637405 0  -3.003541695488338 21.99968160483748 0  -2.002305534464139 21.99968311654909 0  -1.001132253483965 21.99968155401768 0  1.005215525215045e-05 21.99967719364541 0  1.001152332923433 21.99966999439777 0  2.002325523722202 21.99965960390214 0  3.003561483067934 21.99964535274653 0  4.00360357070267 21.99979580334142 0  5.003560826322965 21.9999465703356 0  6.002590264268669 21.99995715112708 0  7.00168926507498 21.99997019664688 0  8.000833496248855 21.99998474409235 0  9 22 0  -9 24 0  -8.000715250838571 24.00002973323166 0  -7.001449726387405 24.00006154610322 0  -6.002223179369169 24.00009760523356 0  -5.003056400018893 24.0001402542627 0  -4.003092999778949 23.99982149033012 0  -3.003056649977331 23.99950248790751 0  -2.001991523411307 23.99951690340583 0  -1.000980327473764 23.99952332238355 0  4.138574815818709e-06 23.99952209909119 0  1.000988356197249 23.99951325184666 0  2.001998792426031 23.99949646492446 0  3.003062604926749 23.99947108627683 0  4.003097737840123 23.99979629381179 0  5.003060522518124 24.00012173225259 0  6.002226869800353 24.00008415385724 0  7.001452464254108 24.00005278831604 0  8.000716700409248 24.00002541739849 0  9 24 0  -9 26 0  -8.000524886353508 26.00006143837109 0  -7.001063792171372 26.00012580514808 0  -6.001631097035354 26.00019611575204 0  -5.00224187119441 26.00027556219844 0  -4.002268729321343 25.999816898912 0  -3.002242444367133 25.99935807268365 0  -2.001462430951175 25.99938261466461 0  -1.000721772537218 25.99939559888474 0  -7.54160480944618e-07 25.99939743848537 0  1.000719852504827 25.99938820426472 0  2.001459261490703 25.99936762595383 0  3.002237143360252 25.99933509039101 0  4.002261579420465 25.99979851878829 0  5.002233773632517 26.00026209585852 0  6.001625909961083 26.00018630556368 0  7.001060747178905 26.00011940309886 0  8.000523485163219 26.00005827877461 0  9 26 0  -9 28 0  -8.000278222547479 28.00008143359108 0  -7.000563856402611 28.00016629084047 0  -6.000864504528881 28.00025808242705 0  -5.001188112086632 28.00036049418823 0  -4.001202724401587 27.99981170711969 0  -3.001189167028914 27.99926285252995 0  -2.000776545666797 27.99929449365345 0  -1.000384940614747 27.99931238948869 0  -3.97268899839835e-06 27.99931700629156 0  1.000376482208716 27.99930846591959 0  2.000766532529679 27.99928654577717 0  3.001176510230715 27.99925067847227 0  4.001187839839906 27.99980199963688 0  5.00117208582008 28.0003534094429 0  6.000853551190748 28.00025291103352 0  7.000557053123406 28.00016291095521 0  8.00027496
[...]
<PointData  Vectors="f_42"> 
<DataArray  type="Float64"  Name="f_42"  NumberOfComponents="3" format="ascii">0.0000000000000000e+00 0.0000000000000000e+00 0.0000000000000000e+00  0.0000000000000000e+00 0.0000000000000000e+00 0.0000000000000000e+00  0.0000000000000000e+00 0.0000000000000000e+00 0.0000000000000000e+00  0.0000000000000000e+00 0.0000000000000000e+00 0.0000000000000000e+00  0.0000000000000000e+00 0.0000000000000000e+00 0.0000000000000000e+00  0.0000000000000000e+00 0.0000000000000000e+00 0.0000000000000000e+00  0.0000000000000000e+00 0.0000000000000000e+00 0.0000000000000000e+00  0.0000000000000000e+00 0.0000000000000000e+00 0.0000000000000000e+00  0.0000000000000000e+00 0.0000000000000000e+00 0.0000000000000000e+00  0.0000000000000000e+00 0.0000000000000000e+00 0.0000000000000000e+00  0.0000000000000000e+00 0.0000000000000000e+00 0.0000000000000000e+00  0.0000000000000000e+00 0.0000000000000000e+00 0.0000000000000000e+00  0.0000000000000000e+00 0.0000000000000000e+00 0.0000000000000000e+00  0.0000000000000000e+00 0.0000000000000000e+00 0.0000000000000000e+00  0.0000000000000000e+00 0.0000000000000000e+00 0.0000000000000000e+00  0.0000000000000000e+00 0.0000000000000000e+00 0.0000000000000000e+00  0.0000000000000000e+00 0.0000000000000000e+00 0.0000000000000000e+00  0.0000000000000000e+00 0.0000000000000000e+00 0.0000000000000000e+00  0.0000000000000000e+00 0.0000000000000000e+00 0.0000000000000000e+00  0.0000000000000000e+00 0.0000000000000000e+00 0.0000000000000000e+00  -3.4720307084973510e-06 -4.9384073161331907e-06 0.0000000000000000e+00  -7.2899757497284353e-06 -9.2987190201117876e-06 0.0000000000000000e+00  -1.2232884123034867e-05 -1.2615017528131665e-05 0.0000000000000000e+00  -2.0053368295538099e-05 -1.4694160239121236e-05 0.0000000000000000e+00  -1.2240460585762282e-05 -1.0886506258716705e-05 0.0000000000000000e+00  -4.1453949196047621e-06 -7.4411728541062357e-06 0.0000000000000000e+00  -8.8757452381825542e-08 -4.2787047198523753e-06 0.0000000000000000e+00  8.1512417403595513e-07 -1.7817200180177794e-06 0.0000000000000000e+00  -2.5198740815245909e-07 -6.7780525662899259e-07 0.0000000000000000e+00  -1.4765803687462497e-06 -1.4012017648660682e-06 0.0000000000000000e+00  -1.1049812124127852e-06 -3.7674575065725343e-06 0.0000000000000000e+00  2.0422554137984195e-06 -6.6766425930838219e-06 0.0000000000000000e+00  8.3281787604404904e-06 -9.7882982704577627e-06 0.0000000000000000e+00  1.7345672806592480e-05 -1.1030517767826609e-05 0.0000000000000000e+00  1.0435469853020802e-05 -1.0527734062939588e-05 0.0000000000000000e+00  6.1799841144117477e-06 -8.1028804106029094e-06 0.0000000000000000e+00  2.9408507182873049e-06 -4.3812843682796665e-06 0.0000000000000000e+00  0.0000000000000000e+00 0.0000000000000000e+00 0.0000000000000000e+00  0.0000000000000000e+00 0.0000000000000000e+00 0.0000000000000000e+00  -5.5603679839035620e-06 -1.2189062479166295e-05 0.0000000000000000e+00  -1.0080098317327612e-05 -2.2773389174028043e-05 0.0000000000000000e+00  -1.2955442060153403e-05 -3.0178603515518927e-05 0.0000000000000000e+00  -1.4319802340495100e-05 -3.2897983579034714e-05 0.0000000000000000e+00  -3.1431132310347879e-06 -3.1159266154581933e-05 0.0000000000000000e+00  4.4660881433106029e-06 -2.1700083083517566e-05 0.0000000000000000e+00  6.7064179320563041e-06 -9.4090444836017057e-06 0.0000000000000000e+00  4.2867633558944976e-06 4.6438431266078375e-07 0.0000000000000000e+00  -6.8351264796738778e-07 4.4758081938963819e-06 0.0000000000000000e+00  -5.7785237353848850e-06 1.4679823713354571e-06 0.0000000000000000e+00  -8.6207481534504673e-06 -6.7711791638333699e-06 0.0000000000000000e+00  -6.8412932417353631e-06 -1.7931905817030129e-05 0.0000000000000000e+00  2.6190480927121821e-07 -2.9105745912502436e-05 0.0000000000000000e+00  1.0920846976509704e-05 -3.2713067469043451e-05 0.0000000000000000e+00  1.0252030080621566e-05 -2.8743665700063405e-05 0.0000000000000000e+00  8.2945211019827337e-06 -2.1392593598508571e-05 0.0000000000000000e+00  4.6885156459047362e-06 -1.1401179610066437e-05 0.0000000000000000e+00  0.0000000000000000e+00 0.0000000000000000e+00 0.0000000000000000e+00  0.0000000000000000e+00 0.0000000000000000e+00 0.0000000000000000e+00  -1.1811092081684894e-05 -2.5858026094446393e-05 0.0000000000000000e+00  -1.9447759854395725e-05 -4.8963926580395641e-05 0.0000000000000000e+00  -1.9721954478045398e-05 -6.6484976746841756e-05 0.0000000000000000e+00  -1.1716491459942200e-05 -7.5700669681128067e-05 0.0000000000000000e+00  9.7591842395921893e-06 -6.1755135707545347e-05 0.0000000000000000e+00  1.9677446136613463e-05 -3.2698950595376433e-05 0.0000000000000000e+00  1.6162203615489634e-05 -2.2593555981587712e-06 0.0000000000000000e+00  6.9684429290840691e-06 1.4675092154642488e-05 0.0000000000000000e+00  -2.3259735149323822e-06 1.8134548638447613e-05 0.0000000000000000e+00  -1.0623111602695497e-05 1.2732062706491390e-05 0.0000000000000000e+00  -1.6848752594848338e-05 -2.2522767655836348e-06 0.0000000000000000e+00  -1.9006055185325694e-05 -2.7534109745371730e-05 0.0000000000000000e+00  -1.3779623341283400e-05 -5.3692816979626190e-05 0.0000000000000000e+00  4.4004123243900033e-06 -6.6491909918730286e-05 0.0000000000000000e+00  1.5223361454472811e-05 -6.0485756339230803e-05 0.0000000000000000e+00  1.7002886734379057e-05 -4.5243070928271334e-05 0.0000000000000000e+00  1.0765982293032353e-05 -2.4059560526011404e-05 0.0000000000000000e+00  0.0000000000000000e+00 0.0000000000000000e+00 0.0000000000000000e+00  0.0000000000000000e+00 0.0000000000000000e+00 0.0000000000000000e+00  -3.4757593092491900e-05 -5.0532613647467940e-05 0.0000000000000000e+00  -5.8264250906217356e-05 -9.7490781224574414e-05 0.0000000000000000e+00  -5.9606529675243727e-05 -1.3600975546497430e-04 0.0000000000000000e+00  -2.9415870468973773e-05 -1.5805778730988942e-04 0.0000000000000000e+00  1.1792874875908689e-05 -9.3986967744764279e-05 0.0000000000000000e+00  4.4652063134300966e-06 -1.8698160002464921e-05 0.0000000000000000e+00  -1.0726629366122042e-05 1.8027116582994501e-05 0.0000000000000000e+00  -1.1844699912320349e-05 2.2265284439542332e-05 0.0000000000000000e+00  -2.4970637530056217e-06 2.3490016092973895e-05 0.0000000000000000e+00  4.6067906791549328e-06 2.7081638383012770e-05 0.0000000000000000e+00  2.0953286359693698e-06 1.1930914182931039e-05 0.0000000000000000e+00  -1.5235433291491124e-05 -1.3946681074937087e-05 0.0000000000000000e+00  -2.0758586317503161e-05 -7.7785309783257723e-05 0.0000000000000000e+00  1.9500722908364676e-05 -1.4971740455931192e-04 0.0000000000000000e+00  5.6366261009012521e-05 -1.2916981723482668e-04 0.0000000000000000e+00  5.7774527145604179e-05 -9.2853667618139225e-05 0.0000000000000000e+00  3.4957657833763812e-05 -4.8219730006498854e-05 0.0000000000000000e+00  0.0000000000000000e+00 0.0000000000000000e+00 0.0000000000000000e+00  0.0000000000000000e+00 0.0000000000000000e+00 0.0000000000000000e+00  -1.0269348003467667e-04 -8.9493387429922161e-05 0.0000000000000000e+00  -1.8572269743280498e-04 -1.7975622352024291e-04 0.0000000000000000e+00  -2.2560827987121363e-04 -2.7138877612847221e-04 0.0000000000000000e+00  -1.8964229804823465e-04 -3.6459956817409600e-04 0.0000000000000000e+00  -1.2446960964473472e-04 -1.5820498685384377e-04 0.0000000000000000e+00  -1.3467076594434783e-04 1.9399475286445585e-05 0.0000000000000000e+00  -1.0793251105928706e-04 -1.0918426060794443e-05 0.0000000000000000e+00  -5.0582028062838109e-05 -2.0640945677765628e-05 0.0000000000000000e+00  -8.3063718415859067e-06 -2.3001144088312962e-05 0.0000000000000000e+00  3.3564742009044308e-05 -2.2833935129648544e-05 0.0000000000000000e+00  8.9032683692044247e-05 -2.3968878705344390e-05 0.0000000000000000e+00  1.3825153464661809e-04 3.8743784530024663e-05 0.0000000000000000e+00  1.3289220187530002e-04 -1.2773386967696777e-04 0.0000000000000000e+00  2.0606179392682519e-04 -3.4706530318051880e-04 0.0000000000000000e+00  2.3930815455857943e-04 -2.6090490517601320e-04 0.0000000000000000e+00  1.9542775732393162e-04 -1.7372241856558376e-04 0.0000000000000000e+00  1.0770007148643209e-04 -8.6714807593400557e-05 0.0000000000000000e+00  0.0000000000000000e+00 0.0000000000000000e+00 0.0000000000000000e+00  0.0000000000000000e+00 0.0000000000000000e+00 0.0000000000000000e+00  -2.4922016912189311e-04 -1.2535173349225950e-04 0.0000000000000000e+00  -4.8564771034759321e-04 -2.5650131527019446e-04 0.0000000000000000e+00  -6.9480727791926559e-04 -4.0038298529172794e-04 0.0000000000000000e+00  -8.5877770847528118e-04 -5.6667158321899148e-04 0.0000000000000000e+00  -8.2542922719532974e-04 -1.9093820068552880e-04 0.0000000000000000e+00  -8.5507561091360698e-04 1.8112660233004360e-04 0.0000000000000000e+00  -5.8933065952779229e-04 1.3586632190979380e-04 0.0000000000000000e+00  -2.9379491409219056e-04 1.1113036492012439e-04 0.0000000000000000e+00  1.3115006667642831e-05 1.0585740748617242e-04 0.0000000000000000e+00  3.2330450108937562e-04 1.2078373192178108e-04 0.0000000000000000e+00  6.3003434332654722e-04 1.6037875472555758e-04 0.0000000000000000e+00  9.1987079071372034e-04 2.3587314703890541e-04 0.0000000000000000e+00  8.8912006258434924e-04 -1.6195304815783894e-04 0.0000000000000000e+00  9.1009399516355784e-04 -5.6294919831392592e-04 0.0000000000000000e+00  7.3061010454399090e-04 -3.9667525139968371e-04 0.0000000000000000e+00  5.0839651246438499e-04 -2.5385897872640687e-04 0.0000000000000000e+00  2.6028687164697978e-04 -1.2401838622676801e-04 0.0000000000000000e+00  0.0000000000000000e+00 0.0000000000000000e+00 0.0000000000000000e+00  0.0000000000000000e+00 0.0000000000000000e+00 0.0000000000000000e+00  -4.4678090953103027e-04 -1.3799094025594062e-04 0.0000000000000000e+00  -8.9442647394915274e-04 -2.8227008435127726e-04 0.0000000000000000e+00  -1.3443900691736798e-03 -4.3967951508014038e-04 0.0000000000000000e+00  -1.7997057110268285e-03 -6.1814426539985123e-04 0.0000000000000000e+00  -1.8041437349402066e-03 -1.7947674477543601e-04 0.0000000000000000e+00  -1.8064004272081034e-03 2.6478722168962927e-04 0.0000000000000000e+00  -1.1901484532250586e-03 2.0060506128718582e-04 0.0000000000000000e+00  -5.8261860592932280e-04 1.6509476164695933e-04 0.0000000000000000e+00  2.1446679023074118e-05 1.5395998606488782e-04 0.0000000000000000e+00  6.2707710090294624e-04 1.6577685070421025e-04 0.0000000000000000e+00  1.2389812367382266e-03 2.0120132857133643e-04 0.0000000000000000e+00  1.8609464839300354e-03 2.6217980134607324e-04 0.0000000000000000e+00  1.8667195744626764e-03 -1.7752876347772130e-04 0.0000000000000000e+00  1.8693858875681202e-03 -6.1443899865720720e-04 0.0000000000000000e+00  1.3925080868391580e-03 -4.3850933454047015e-04 0.0000000000000000e+00  9.2476053364730945e-04 -2.8202979352549569e-04 0.0000000000000000e+00  4.6146479004962297e-04 -1.3799866788362348e-04 0.0000000000000000e+00  0.0000000000000000e+00 0.0000000000000000e+00 0.0000000000000000e+00  0.0000000000000000e+00 0.0000000000000000e+00 0.0000000000000000e+00  -6.4069712228363512e-04 -1.2545898117421596e-04 0.0000000000000000e+00  -1.2936273036702967e-03 -2.5547890288337994e-04 0.0000000000000000e+00  -1.9720728563603651e-03 -3.9469652558330072e-04 0.0000000000000000e+00  -2.6915078611069189e-03 -5.4781765568523986e-04 0.0000000000000000e+00  -2.7167483839551183e-03 -1.7371345955203806e-04 0.0000000000000000e+00  -2.6923936256735728e-03 1.9837537975344897e-04 0.0000000000000000e+00  -1.7565558057301743e-03 1.5080455215797517e-04 0.0000000000000000e+00  -8.5779532794971313e-04 1.2167616608789965e-04 0.0000000000000000e+00  2.3522447322144884e-05 1.1036327739265743e-04 0.0000000000000000e+00  9.0597212343725142e-04 1.1644484509106904e-04 0.0000000000000000e+00  1.8081459274948918e-03 1.3991290923391056e-04 0.0000000000000000e+00  2.7498297282577918e-03 1.8107876123918881e-04 0.0000000000000000e+00  2.7774079734760307e-03 -1.8898000476624130e-04 0.0000000000000000e+00  2.7539441524713701e-03 -5.5934668489881643e-04 0.0000000000000000e+00  2.0173417548866993e-03 -4.0247239010714702e-04 0.0000000000000000e+00  1.3229883661540383e-03 -2.6035745176769927e-04 0.0000000000000000e+00  6.5512274907317659e-04 -1.2782310492152204e-04 0.0000000000000000e+00  0.0000000000000000e+00 0.0000000000000000e+00 0.0000000000000000e+00  0.0000000000000000e+00 0.0000000000000000e+00 0.0000000000000000e+00  -7.8548707950626276e-04 -9.4678632961810492e-05 0.0000000000000000e+00  -1.5904156459467065e-03 -1.9187800753690191e-04 0.0000000000000000e+00  -2.4352356814274258e-03 -2.9406910521222662e-04 0.0000000000000000e+00  -3.3424247044919683e-03 -4.0360497430182943e-04 0.0000000000000000e+00  -3.3806460761571073e-03 -1.7255061197464586e-04 0.0000000000000000e+00  -3.3435274543914626e-03 5.8188031054452052e-05 0.0000000000000000e+00  -2.1752626508360147e-03 2.7354976769589910e-05 0.0000000000000000e+00  -1.0634879347636518e-03 7.1205025707251064e-06 0.0000000000000000e+00  2.1056660122511090e-05 -2.6878783886241901e-06 0.0000000000000000e+00  1.1062249206791829e-03 -2.3126968395042539e-06 0.0000000000000000e+00  2.2198328879325605e-03 7.9484176810987658e-06 0.0000000000000000e+00  3.3910088569952426e-03 2.7687452495208730e-05 0.0000000000000000e+00  3.4303855645542156e-03 -1.9773698304566056e-04 0.0000000000000000e+00  3.3933274333866328e-03 -4.2249894333737967e-04 0.0000000000000000e+00  2.4725621662731383e-03 -3.0735362473612748e-04 0.0000000000000000e+00  1.6148778404580023e-03 -2.0033545958876768e-04 0.0000000000000000e+00  7.9758827963641343e-04 -9.8792817981363198e-05 0.0000000000000000e+00  0.0000000000000000e+00 0.0000000000000000e+00 0.0000000000000000e+00  0.0000000000000000e+00 0.0000000000000000e+00 0.0000000000000000e+00  -8.5233023246653679e-04 -5.3818657712930375e-05 0.0000000000000000e+00  -1.7272809971501861e-03 -1.0830610143438386e-04 0.0000000000000000e+00  -2.6483362835990616e-03 -1.6405315082491530e-04 0.0000000000000000e+00  -3.6407104482107538e-03 -2.2149311216301292e-04 0.0000000000000000e+00  -3.6843043152184475e-03 -1.7287359966962682e-04 0.0000000000000000e+00  -3.6411174228146714e-03 -1.2456437639574887e-04 0.0000000000000000e+00  -2.3686922421043361e-03 -1.3840113495343394e-04 0.0000000000000000e+00  -1.1605862857350677e-03 -1.4904928719918013e-04 0.0000000000000000e+00  1.6080447145906709e-05 -1.5638296349810473e-04 0.0000000000000000e+00  1.1930096121097963e-03 -1.6052683200476768e-04 0.0000000000000000e+00  2.4018842335585934e-03 -1.6184747331744899e-04 0.0000000000000000e+00  3.6755323278407285e-03 -1.6097430218189705e-04 0.0000000000000000e+00  3.7194960698848181e-03 -2.0239096021269225e-04 0.0000000000000000e+00  3.6764100760980955e-03 -2.4333065962448875e-04 0.0000000000000000e+00  2.6748270449713936e-03 -1.7971462017448830e-04 0.0000000000000000e+00  1.7447996020707485e-03 -1.1840595760998640e-04 0.0000000000000000e+00  8.6104551537532939e-04 -5.8766558287799474e-05 0.0000000000000000e+00  -6.3334906617239825e-12 -1.5552126583120802e-12 0.0000000000000000e+00  0.0000000000000000e+00 0.0000000000000000e+00 0.0000000000000000e+00  -8.2852495638469298e-04 -1.0287398576710807e-05 0.0000000000000000e+00  -1.6793747397176001e-03 -1.9697224847645421e-05 0.0000000000000000e+00  -2.5755702263708154e-03 -2.7265867607028556e-05 0.0000000000000000e+00  -3.5415225328177596e-03 -3.1856028579060066e-05 0.0000000000000000e+00  -3.5841152520006293e-03 -1.7497362593953507e-04 0.0000000000000000e+00  -3.5416954883394362e-03 -3.1839516251201900e-04 0.0000000000000000e+00  -2.3055344641384622e-03 -3.1688345090733990e-04 0.0000000000000000e+00  -1.1322534839645110e-03 -3.1844598230756238e-04 0.0000000000000000e+00  1.0052155252150452e-05 -3.2280635460719341e-04 0.0000000000000000e+00  1.1523329234331399e-03 -3.3000560223702460e-04 0.0000000000000000e+00  2.3255237222010194e-03 -3.4039609786157282e-04 0.0000000000000000e+00  3.5614830679331533e-03 -3.5464725347496767e-04 0.0000000000000000e+00  3.6035707026715450e-03 -2.0419665857634742e-04 0.0000000000000000e+00  3.5608263229660896e-03 -5.3429664414364489e-05 0.0000000000000000e+00  2.5902642686692449e-03 -4.2848872919140028e-05 0.0000000000000000e+00  1.6892650749778624e-03 -2.9803353104709428e-05 0.0000000000000000e+00  8.3349624885408488e-04 -1.5255907650618182e-05 0.0000000000000000e+00  0.0000000000000000e+00 0.0000000000000000e+00 0.0000000000000000e+00  0.0000000000000000e+00 0.0000000000000000e+00 0.0000000000000000e+00  -7.1525083856517743e-04 2.9733231672456414e-05 0.0000000000000000e+00  -1.4497263874045936e-03 6.1546103224357579e-05 0.0000000000000000e+00  -2.2231793691716213e-03 9.7605233569100148e-05 0.0000000000000000e+00  -3.0564000188905735e-03 1.4025426269290668e-04 0.0000000000000000e+00  -3.0929997789491217e-03 -1.7850966986255210e-04 0.0000000000000000e+00  -3.0566499773306260e-03 -4.9751209249280592e-04 0.0000000000000000e+00  -1.9915234113055047e-03 -4.8309659415953773e-04 0.0000000000000000e+00  -9.8032747376350566e-04 -4.7667761644486629e-04 0.0000000000000000e+00  4.1385748158187093e-06 -4.7790090881435511e-04 0.0000000000000000e+00  9.8835619724830159e-04 -4.8674815334726204e-04 0.0000000000000000e+00  1.9987924260329603e-03 -5.0353507552970385e-04 0.0000000000000000e+00  3.0626049267488673e-03 -5.2891372316510820e-04 0.0000000000000000e+00  3.0977378401199815e-03 -2.0370618821101468e-04 0.0000000000000000e+00  3.0605225181255212e-03 1.2173225257405604e-04 0.0000000000000000e+00  2.2268698003570352e-03 8.4153857243960312e-05 0.0000000000000000e+00  1.4524642541072616e-03 5.2788316034702182e-05 0.0000000000000000e+00  7.1670040924629150e-04 2.5417398497066401e-05 0.0000000000000000e+00  0.0000000000000000e+00 0.0000000000000000e+00 0.0000000000000000e+00  0.0000000000000000e+00 0.0000000000000000e+00 0.0000000000000000e+00  -5.2488635351459522e-04 6.1438371096126718e-05 0.0000000000000000e+00  -1.0637921713752179e-03 1.2580514809410452e-04 0.0000000000000000e+00  -1.6310970353542724e-03 1.9611575202948511e-04 0.0000000000000000e+00  -2.2418711944067384e-03 2.7556219845235712e-04 0.0000000000000000e+00  -2.2687293213441476e-03 -1.8310108799796251e-04 0.0000000000000000e+00  -2.2424443671308115e-03 -6.4192731634860360e-04 0.0000000000000000e+00  -1.4624309511755355e-03 -6.1738533538588478e-04 0.0000000000000000e+00  -7.2177253721711267e-04 -6.0440111526362326e-04 0.0000000000000000e+00  -7.5416048094461804e-07 -6.0256151462339614e-04 0.0000000000000000e+00  7.1985250482664662e-04 -6.1179573527129821e-04 0.0000000000000000e+00  1.4592614907025954e-03 -6.3237404618231459e-04 0.0000000000000000e+00  2.2371433602513084e-03 -6.6490960899906731e-04 0.0000000000000000e+00  2.2615794204665146e-03 -2.0148121171535729e-04 0.0000000000000000e+00  2.2337736325133734e-03 2.6209585852530315e-04 0.0000000000000000e+00  1.6259099610811515e-03 1.8630556366774158e-04 0.0000000000000000e+00  1.0607471789047277e-03 1.1940309886423809e-04 0.0000000000000000e+00  5.2348516322485721e-04 5.8278774616302904e-05 0.0000000000000000e+00  0.0000000000000000e+00 0.0000000000000000e+00 0.0000000000000000e+00  0.0000000000000000e+00 0.0000000000000000e+00 0.0000000000000000e+00  -2.7822254747310727e-04 8.1433591070775418e-05 0.0000000000000000e+00  -5.6385640261324413e-04 1.6629084045794232e-04 0.0000000000000000e+00  -8.6450452887931024e-04 2.5808242706306116e-04 0.0000000000000000e+00  -1.1881120866357097e-03 3.6049418822433097e-04 0.0000000000000000e+00  -1.2027244015893038e-03 -1.8829288030741779e-04 0.0000000000000000e+00  -1.1891670289125573e-03 -7.3714747006715172e-04 0.0000000000000000e+00  -7.7654566679608386e-04 -7.0550634656561296e-04 0.0000000000000000e+00  -3.8494061474666878e-04 -6.8761051131256614e-04 0.0000000000000000e+00  -3.9726889983983496e-06 -6.8299370844129219e-04 0.0000000000000000e+00  3.7648220871652690e-04 -6.9153408040684052e-04 0.0000000000000000e+00  7.6653252967977129e-04 -7.1345422282238964e-04 0.0000000000000000e+00  1.1765102307179434e-03 -7.4932152775339074e-04 0.0000000000000000e+00  1.1878398399036243e-03 -1.9800036311722343e-04 0.0000000000000000e