<?xml version="1.0"?>
<VTKFile type="UnstructuredGrid"  version="0.1"  >
<UnstructuredGrid>
<Piece  NumberOfPoints="589" NumberOfCells="1080">
<Points>
<DataArray  type="Float64"  NumberOfComponents="3"  format="ascii">-9 0 0  -8 0 0  -7 0 0  -6 0 0  -5 0 0  -4 0 0  -3 0 0  -2 0 0  -1 0 0  0 0 0  1 0 0  2 0 0  3 0 0  4 0 0  5 0 0  6 0 0  7 0 0  8 0 0  9 0 0  -9 2 0  -8.000006885142861 1.999989737087143 0  -7.000014432579651 1.999980734898534 0  -6.000024207698119 1.999974016740021 0  -5.000039795938229 1.999970030563886 0  -4.000023644456966 1.99997763340541 0  -3.000007039356594 1.999984815332974 0  -1.999998924026368 1.99999154475374 0  -0.9999975310114712 1.999996866142926 0  -3.410398105035314e-07 1.999999213555309 0  0.9999965306389428 1.99999763562245 0  1.999996850391714 1.999992527838513 0  3.000003141615684 1.9999862759531 0  4.000016168028332 1.999979633849635 0  5.000035002054458 1.999977075418062 0  6.000021063282635 1.999977952940474 0  7.000012509955304 1.999982963004119 0  8.00000597160853 1.999990769186554 0  9 2 0  -9 4 0  -8.00001112096637 3.999974431875748 0  -7.000019954457167 3.999952334123701 0  -6.000025162841548 3.99993710579361 0  -5.000027020755418 3.999931987136131 0  -4.000003549732562 3.999935582011533 0  -2.999987787392214 3.99995578369782 0  -1.999983623921877 3.999982056659157 0  -0.9999895255977799 4.000003197103382 0  -9.090487789847729e-07 4.000011756052901 0  0.9999874534694291 4.000005206866545 0  1.999980688554932 3.999987410360712 0  2.999983920227713 3.999963330238677 0  3.99999870385521 3.999939189184345 0  5.000021305837976 3.999931353692368 0  6.000020584665206 3.999939376098942 0  7.000016959839928 3.999954742159376 0  8.000009676023355 3.999975840499966 0  9 4 0  -9 6 0  -8.000024505935192 5.999945248102216 0  -7.000039976698388 5.999896458366456 0  -6.000039519878399 5.999859758757791 0  -5.000021163094704 5.999841019417867 0  -3.999975425936552 5.999870999519155 0  -2.999954613574543 5.999933489322314 0  -1.999962810280621 5.999998963003638 0  -0.9999832520864683 6.000035349243172 0  -3.909648916385134e-06 6.000042694279911 0  0.99997755340997 6.000031006536626 0  1.999963453411445 5.999998614803189 0  2.99995818551119 5.999943886237454 0  3.999968953407711 5.999887199260466 0  5.000007782256154 5.999859289204547 0  6.000031720610663 5.99987142712383 0  7.000036044905972 5.999903595036035 0  8.000022948121225 5.999948669872479 0  9 6 0  -9 8 0  -8.000074023138412 7.999892229167814 0  -7.000123704135369 7.999792236601508 0  -6.000125473797707 7.99971058494473 0  -5.000059187092681 7.999664679048352 0  -3.999970682394275 7.999802807179336 0  -2.99998710485238 7.999965054907926 0  -2.000020414474144 8.000044037627044 0  -1.000023294680323 8.00005293259983 0  -3.536913907322887e-06 8.000055504536087 0  1.000011292701722 8.000063432098605 0  2.000005320554265 8.000030678149693 0  2.99996708207324 7.999974905035534 0  3.999954201444351 7.999836525363375 0  5.000040803963898 7.999680354921657 0  6.000121302484359 7.999723378014812 0  7.000124802501738 7.999800835359236 0  8.000075615483315 7.999896489505356 0  9 8 0  -9 10 0  -8.000220840721031 9.999808152082759 0  -7.000399004164958 9.999614736199387 0  -6.000483583782255 9.999418568286806 0  -5.000403690220096 9.99921937508104 0  -4.000263290676984 9.999665553550489 0  -3.000286497019458 10.0000491185934 0  -2.000229690476608 9.999982717928363 0  -1.000106377350635 9.999961412050725 0  -1.564705035252989e-05 9.999956216871018 0  1.000074278593723 9.99995665158016 0  2.000193881171202 9.999954385590424 0  3.000299290372668 10.00009183222653 0  4.000286235700798 9.99973014602125 0  5.000444967509492 9.999252819721541 0  6.000518733321478 9.999437703633584 0  7.000424216868847 9.999625350848246 0  8.000233937027497 9.999812923230563 0  9 10 0  -9 12 0  -8.000538051142076 11.99973046427809 0  -7.001048123185572 11.99944844206047 0  -6.001498587900533 11.99913899824155 0  -5.00185021487802 11.99878130151318 0  -4.001778359719379 11.99959531828559 0  -3.001843538050615 12.00040124720638 0  -2.001268083677133 12.00030335001677 0  -1.000627560082768 12.0002501068748 0  3.76926760647956e-05 12.00023926456955 0  1.000709739750175 12.00027246425898 0  2.00137351342085 12.00035945301181 0  3.001999177873416 12.00052466845587 0  4.001930455865209 11.99965669363137 0  5.001976062011308 11.99878156458516 0  6.00158858045255 11.9991412328547 0  7.001106328340363 11.99945032336981 0  8.000566669431675 11.99973143708418 0  9 12 0  -9 14 0  -8.000966524540337 13.99970285538477 0  -7.001934625451431 13.99939206440163 0  -6.002907153483888 13.99905277586052 0  -5.00389024943237 13.99866777570551 0  -4.003900327283376 13.9996199563354 0  -3.003906479247822 14.00058418896603 0  -2.002567986061521 14.00044561060811 0  -1.001248202394237 14.0003694146139 0  6.400335386957599e-05 14.00034634223822 0  1.001379244304649 14.00037336364741 0  2.002707391082419 14.00045196321949 0  3.004056240251603 14.00058642536126 0  4.00406692223347 13.99962284647208 0  5.004072680475976 13.99866527365961 0  6.003035945380042 13.99904758468373 0  7.002017151366552 13.99938750887801 0  8.001006873373111 13.99970032147285 0  9 14 0  -9 16 0  -8.00138780023903 15.99972992059186 0  -7.002801949833765 15.99944986444145 0  -6.004271082457166 15.99914968175262 0  -5.005828501157186 15.99881903940399 0  -4.005883817434028 15.99963250192241 0  -3.005831840351689 16.000441666867 0  -2.003795356802043 16.00033905684747 0  -1.00183954642538 16.00027680370223 0  7.820686386260159e-05 16.00025356439621 0  1.001998191499598 16.00026846159002 0  2.00396071527732 16.00032153289513 0  3.006008668275801 16.00041352688719 0  4.006067327767578 15.99959797296083 0  5.006016052899668 15.99878179737911 0  6.004408901466469 15.99912383176074 0  7.002892308479314 15.9994333842643 0  8.001432503647832 15.99972187021865 0  9 16 0  -9 18 0  -8.001702733662949 17.99979691607674 0  -7.003447657778135 17.99958826381968 0  -6.005279157127703 17.9993685764217 0  -5.007245986583294 17.99913261428978 0  -4.007329594581626 17.99963560743503 0  -3.007249282107715 18.00013795613274 0  -2.004702986238537 18.00007166226852 0  -1.002280046579225 18.00002874642826 0  8.34271228554744e-05 18.00000884231146 0  1.002448229768639 18.0000114511736 0  2.004875070335101 18.00003597463035 0  3.007427540881838 18.0000815945783 0  4.007512690908793 17.99957937614583 0  5.007431595654266 17.99907864311695 0  6.005416603948938 17.99933022922781 0  7.003538417411333 17.99956366285552 0  8.001747847070451 17.99978489345915 0  9 18 0  -9 20 0  -8.00184803280087 19.99988617032635 0  -7.003745339053436 19.99977082645858 0  -6.005743073755561 19.99965261990457 0  -5.007896155239549 19.99953052846196 0  -4.007991597856041 19.99963588621149 0  -3.0078975896714 19.9997405351947 0  -2.005120519163432 19.99971118842079 0  -1.00248426526409 19.9996890887301 0  8.326217328650176e-05 19.99967451327743 0  1.002651543103329 19.99966721240295 0  2.005290021324529 19.99966642802983 0  3.008070688534893 19.99967084811921 0  4.008166523282755 19.99957012420062 0  5.008071955348046 19.99947042147096 0  6.005873980301535 19.99960929924597 0  7.003832150112535 19.99974278297687 0  8.001891298279615 19.99987239925409 0  8.999999999993184 19.99999999999437 0  -9 22 0  -8.001795431730562 21.99998146464718 0  -7.003639590763441 21.9999648358818 0  -6.005582732139374 21.99995220598861 0  -5.007678154932904 21.99994604240428 0  -4.007771624001914 21.99963230210387 0  -3.007679076478707 21.9993177747953 0  -2.004978157109126 21.99932187063536 0  -1.002415169212378 21.9993194917415 0  8.007632195936361e-05 21.99931124337877 0  1.002575640835346 21.99929705271602 0  2.005139561994932 21.99927618163777 0  3.007841959861183 21.99924721422827 0  4.007934080177649 21.99956716828894 0  5.007839858027579 21.99988770949245 0  6.005703790942721 21.99990993531285 0  7.003720176990444 21.99993735536222 0  8.001835683699527 21.99996793424364 0  9 22 0  -9 24 0  -8.001547093357175 24.00006913311447 0  -7.003136160453659 24.00014284871949 0  -6.004810349824591 24.00022591971688 0  -5.006615099651587 24.00032351173417 0  -4.006695712966947 23.99962513584876 0  -3.00661651106591 23.99892605439641 0  -2.004287340239786 23.9989583215413 0  -1.002076613623237 23.99897324952735 0  7.569148330734723e-05 23.99897161802196 0  1.002227983398275 23.99895348033527 0  2.00443865234083 23.99891816665119 0  3.006767668029227 23.99886427900326 0  4.006844633223548 23.99956889368649 0  5.006762091131715 24.00027384974483 0  6.004920922851507 24.00018977510061 0  7.003210016038869 24.00011927720101 0  8.00158405653028 24.00005750514568 0  9 24 0  -9 26 0  -8.001129919722219 26.00013848844931 0  -7.002290374653651 26.00028344919548 0  -6.003512729021691 26.00044154728073 0  -5.004829857453919 26.00061984595437 0  -4.004889338304277 25.99961492144486 0  -3.004832440824492 25.99860945237267 0  -2.003125896812712 25.99866383346948 0  -1.001505799514334 25.99869294974929 0  7.149364526917077e-05 25.99869771767915 0  1.001648526904048 25.9986783036432 0  2.00326782674036 25.99863412478587 0  3.004972982971431 25.99856384671641 0  4.005026345144103 25.99957379190868 0  5.004964086843862 26.00058389141291 0  6.003614157720658 26.00041530866018 0  7.002358337474871 26.00026630308088 0  8.001163996696175 26.00013001910025 0  9 26 0  -9 28 0  -8.000589511841868 28.0001819739225 0  -7.001194997025113 28.00037151132433 0  -6.001832896761743 28.00057637086 0  -5.00252038201563 28.00080470745927 0  -4.002553083549824 27.99960263570672 0  -3.002524389881613 27.99840028099849 0  -2.00162175088578 27.99847009403248 0  -1.000765165267536 27.99850972769129 0  6.847319769636495e-05 27.99852022291563 0  1.000901689246274 27.99850185563506 0  2.001756987028819 27.99845413697437 0  3.002657411706403 27.99837581204544 0  4.002681787692276 27.99958078048187 0  5.00264580991264 28.00078581734822 0  6.001928014796215 28.000562556247 0  7.001258892435222 28.00036246913578 0  8.000621598835387 28.000177502
[...]
<PointData  Vectors="f_42"> 
<DataArray  type="Float64"  Name="f_42"  NumberOfComponents="3" format="ascii">0.0000000000000000e+00 0.0000000000000000e+00 0.0000000000000000e+00  0.0000000000000000e+00 0.0000000000000000e+00 0.0000000000000000e+00  0.0000000000000000e+00 0.0000000000000000e+00 0.0000000000000000e+00  0.0000000000000000e+00 0.0000000000000000e+00 0.0000000000000000e+00  0.0000000000000000e+00 0.0000000000000000e+00 0.0000000000000000e+00  0.0000000000000000e+00 0.0000000000000000e+00 0.0000000000000000e+00  0.0000000000000000e+00 0.0000000000000000e+00 0.0000000000000000e+00  0.0000000000000000e+00 0.0000000000000000e+00 0.0000000000000000e+00  0.0000000000000000e+00 0.0000000000000000e+00 0.0000000000000000e+00  0.0000000000000000e+00 0.0000000000000000e+00 0.0000000000000000e+00  0.0000000000000000e+00 0.0000000000000000e+00 0.0000000000000000e+00  0.0000000000000000e+00 0.0000000000000000e+00 0.0000000000000000e+00  0.0000000000000000e+00 0.0000000000000000e+00 0.0000000000000000e+00  0.0000000000000000e+00 0.0000000000000000e+00 0.0000000000000000e+00  0.0000000000000000e+00 0.0000000000000000e+00 0.0000000000000000e+00  0.0000000000000000e+00 0.0000000000000000e+00 0.0000000000000000e+00  0.0000000000000000e+00 0.0000000000000000e+00 0.0000000000000000e+00  0.0000000000000000e+00 0.0000000000000000e+00 0.0000000000000000e+00  0.0000000000000000e+00 0.0000000000000000e+00 0.0000000000000000e+00  0.0000000000000000e+00 0.0000000000000000e+00 0.0000000000000000e+00  -6.8851428687145795e-06 -1.0262912856794422e-05 0.0000000000000000e+00  -1.4432579648887657e-05 -1.9265101465545238e-05 0.0000000000000000e+00  -2.4207698118330303e-05 -2.5983259978596551e-05 0.0000000000000000e+00  -3.9795938232450974e-05 -2.9969436115102406e-05 0.0000000000000000e+00  -2.3644456966456963e-05 -2.2366594590336344e-05 0.0000000000000000e+00  -7.0393565965767816e-06 -1.5184667025553795e-05 0.0000000000000000e+00  1.0759736336969071e-06 -8.4552462607483414e-06 0.0000000000000000e+00  2.4689885285524094e-06 -3.1338570740889691e-06 0.0000000000000000e+00  -3.4103981050353138e-07 -7.8644469087227666e-07 0.0000000000000000e+00  -3.4693610566017292e-06 -2.3643775493729790e-06 0.0000000000000000e+00  -3.1496082875459169e-06 -7.4721614858827262e-06 0.0000000000000000e+00  3.1416156850725879e-06 -1.3724046901203694e-05 0.0000000000000000e+00  1.6168028333170874e-05 -2.0366150364895774e-05 0.0000000000000000e+00  3.5002054455648562e-05 -2.2924581937148134e-05 0.0000000000000000e+00  2.1063282632904708e-05 -2.2047059526173677e-05 0.0000000000000000e+00  1.2509955304375427e-05 -1.7036995880916009e-05 0.0000000000000000e+00  5.9716085263846922e-06 -9.2308134469557289e-06 0.0000000000000000e+00  0.0000000000000000e+00 0.0000000000000000e+00 0.0000000000000000e+00  0.0000000000000000e+00 0.0000000000000000e+00 0.0000000000000000e+00  -1.1120966367735516e-05 -2.5568124254225273e-05 0.0000000000000000e+00  -1.9954457159054294e-05 -4.7665876300197958e-05 0.0000000000000000e+00  -2.5162841547069003e-05 -6.2894206392929926e-05 0.0000000000000000e+00  -2.7020755422443243e-05 -6.8012863868232399e-05 0.0000000000000000e+00  -3.5497325622375079e-06 -6.4417988466568515e-05 0.0000000000000000e+00  1.2212607786093551e-05 -4.4216302177592551e-05 0.0000000000000000e+00  1.6376078121873246e-05 -1.7943340844351116e-05 0.0000000000000000e+00  1.0474402219983723e-05 3.1971033831774317e-06 0.0000000000000000e+00  -9.0904877898477291e-07 1.1756052900285954e-05 0.0000000000000000e+00  -1.2546530571176603e-05 5.2068665492500388e-06 0.0000000000000000e+00  -1.9311445067107540e-05 -1.2589639288427945e-05 0.0000000000000000e+00  -1.6079772282653978e-05 -3.6669761324099599e-05 0.0000000000000000e+00  -1.2961447919633695e-06 -6.0810815655239370e-05 0.0000000000000000e+00  2.1305837968612384e-05 -6.8646307630588693e-05 0.0000000000000000e+00  2.0584665201456829e-05 -6.0623901057393770e-05 0.0000000000000000e+00  1.6959839926731524e-05 -4.5257840623334787e-05 0.0000000000000000e+00  9.6760233673411433e-06 -2.4159500034440825e-05 0.0000000000000000e+00  0.0000000000000000e+00 0.0000000000000000e+00 0.0000000000000000e+00  0.0000000000000000e+00 0.0000000000000000e+00 0.0000000000000000e+00  -2.4505935193769006e-05 -5.4751897787131020e-05 0.0000000000000000e+00  -3.9976698388000823e-05 -1.0354163354201233e-04 0.0000000000000000e+00  -3.9519878402749388e-05 -1.4024124221004053e-04 0.0000000000000000e+00  -2.1163094702676559e-05 -1.5898058212934164e-04 0.0000000000000000e+00  2.4574063449230549e-05 -1.2900048084083096e-04 0.0000000000000000e+00  4.5386425456410813e-05 -6.6510677682275841e-05 0.0000000000000000e+00  3.7189719379030004e-05 -1.0369963637568873e-06 0.0000000000000000e+00  1.6747913532100519e-05 3.5349243171978894e-05 0.0000000000000000e+00  -3.9096489163851338e-06 4.2694279910492145e-05 0.0000000000000000e+00  -2.2446590030208748e-05 3.1006536628138777e-05 0.0000000000000000e+00  -3.6546588554939531e-05 -1.3851968141286113e-06 0.0000000000000000e+00  -4.1814488810535353e-05 -5.6113762540635720e-05 0.0000000000000000e+00  -3.1046592290392188e-05 -1.1280073953294400e-04 0.0000000000000000e+00  7.7822561538189094e-06 -1.4071079545499232e-04 0.0000000000000000e+00  3.1720610657649096e-05 -1.2857287616657988e-04 0.0000000000000000e+00  3.6044905971026880e-05 -9.6404963964219761e-05 0.0000000000000000e+00  2.2948121226200906e-05 -5.1330127520096125e-05 0.0000000000000000e+00  0.0000000000000000e+00 0.0000000000000000e+00 0.0000000000000000e+00  0.0000000000000000e+00 0.0000000000000000e+00 0.0000000000000000e+00  -7.4023138419320147e-05 -1.0777083218497179e-04 0.0000000000000000e+00  -1.2370413536935638e-04 -2.0776339849308680e-04 0.0000000000000000e+00  -1.2547379771206120e-04 -2.8941505527617161e-04 0.0000000000000000e+00  -5.9187092683572298e-05 -3.3532095164097436e-04 0.0000000000000000e+00  2.9317605726288593e-05 -1.9719282066120577e-04 0.0000000000000000e+00  1.2895147618546641e-05 -3.4945092074390923e-05 0.0000000000000000e+00  -2.0414474143108678e-05 4.4037627047403325e-05 0.0000000000000000e+00  -2.3294680323333236e-05 5.2932599832541771e-05 0.0000000000000000e+00  -3.5369139073228870e-06 5.5504536089027678e-05 0.0000000000000000e+00  1.1292701722478423e-05 6.3432098603190363e-05 0.0000000000000000e+00  5.3205542642567328e-06 3.0678149689705672e-05 0.0000000000000000e+00  -3.2917926761388365e-05 -2.5094964463623918e-05 0.0000000000000000e+00  -4.5798555649223658e-05 -1.6347463662595805e-04 0.0000000000000000e+00  4.0803963893446446e-05 -3.1964507834659681e-04 0.0000000000000000e+00  1.2130248436403502e-04 -2.7662198518670360e-04 0.0000000000000000e+00  1.2480250173730015e-04 -1.9916464076991843e-04 0.0000000000000000e+00  7.5615483311185683e-05 -1.0351049464505722e-04 0.0000000000000000e+00  0.0000000000000000e+00 0.0000000000000000e+00 0.0000000000000000e+00  0.0000000000000000e+00 0.0000000000000000e+00 0.0000000000000000e+00  -2.2084072103222333e-04 -1.9184791724138873e-04 0.0000000000000000e+00  -3.9900416495649286e-04 -3.8526380061084775e-04 0.0000000000000000e+00  -4.8358378225465449e-04 -5.8143171319009616e-04 0.0000000000000000e+00  -4.0369022009665976e-04 -7.8062491896315487e-04 0.0000000000000000e+00  -2.6329067698075505e-04 -3.3444644950606368e-04 0.0000000000000000e+00  -2.8649701945975844e-04 4.9118593400865026e-05 0.0000000000000000e+00  -2.2969047660946872e-04 -1.7282071636222960e-05 0.0000000000000000e+00  -1.0637735063534268e-04 -3.8587949271484425e-05 0.0000000000000000e+00  -1.5647050352529886e-05 -4.3783128993203588e-05 0.0000000000000000e+00  7.4278593724674455e-05 -4.3348419839283536e-05 0.0000000000000000e+00  1.9388117120193213e-04 -4.5614409583009965e-05 0.0000000000000000e+00  2.9929037266784181e-04 9.1832226531782764e-05 0.0000000000000000e+00  2.8623570080306052e-04 -2.6985397875085355e-04 0.0000000000000000e+00  4.4496750949691801e-04 -7.4718027846513557e-04 0.0000000000000000e+00  5.1873332148169701e-04 -5.6229636641629303e-04 0.0000000000000000e+00  4.2421686884428048e-04 -3.7464915175363978e-04 0.0000000000000000e+00  2.3393702749411496e-04 -1.8707676943388935e-04 0.0000000000000000e+00  0.0000000000000000e+00 0.0000000000000000e+00 0.0000000000000000e+00  0.0000000000000000e+00 0.0000000000000000e+00 0.0000000000000000e+00  -5.3805114207906802e-04 -2.6953572190334168e-04 0.0000000000000000e+00  -1.0481231855713701e-03 -5.5155793953472491e-04 0.0000000000000000e+00  -1.4985879005321927e-03 -8.6100175843670951e-04 0.0000000000000000e+00  -1.8502148780222510e-03 -1.2186984868207803e-03 0.0000000000000000e+00  -1.7783597193804885e-03 -4.0468171440726875e-04 0.0000000000000000e+00  -1.8435380506154561e-03 4.0124720638553564e-04 0.0000000000000000e+00  -1.2680836771334987e-03 3.0335001677411576e-04 0.0000000000000000e+00  -6.2756008276759311e-04 2.5010687479662700e-04 0.0000000000000000e+00  3.7692676064795601e-05 2.3926456955585310e-04 0.0000000000000000e+00  7.0973975017493305e-04 2.7246425897441156e-04 0.0000000000000000e+00  1.3735134208485336e-03 3.5945301180588068e-04 0.0000000000000000e+00  1.9991778734161207e-03 5.2466845586709673e-04 0.0000000000000000e+00  1.9304558652120244e-03 -3.4330636861922540e-04 0.0000000000000000e+00  1.9760620113034441e-03 -1.2184354148296332e-03 0.0000000000000000e+00  1.5885804525483838e-03 -8.5876714529942882e-04 0.0000000000000000e+00  1.1063283403678927e-03 -5.4967663018919935e-04 0.0000000000000000e+00  5.6666943167710422e-04 -2.6856291582546182e-04 0.0000000000000000e+00  0.0000000000000000e+00 0.0000000000000000e+00 0.0000000000000000e+00  0.0000000000000000e+00 0.0000000000000000e+00 0.0000000000000000e+00  -9.6652454034093093e-04 -2.9714461522759505e-04 0.0000000000000000e+00  -1.9346254514328758e-03 -6.0793559836915868e-04 0.0000000000000000e+00  -2.9071534838894203e-03 -9.4722413947429744e-04 0.0000000000000000e+00  -3.8902494323737095e-03 -1.3322242944850359e-03 0.0000000000000000e+00  -3.9003272833759849e-03 -3.8004366458786526e-04 0.0000000000000000e+00  -3.9064792478197665e-03 5.8418896602843262e-04 0.0000000000000000e+00  -2.5679860615222673e-03 4.4561060810394278e-04 0.0000000000000000e+00  -1.2482023942360961e-03 3.6941461389662715e-04 0.0000000000000000e+00  6.4003353869575993e-05 3.4634223821682384e-04 0.0000000000000000e+00  1.3792443046481038e-03 3.7336364740925759e-04 0.0000000000000000e+00  2.7073910824187693e-03 4.5196321948538256e-04 0.0000000000000000e+00  4.0562402516044265e-03 5.8642536125179184e-04 0.0000000000000000e+00  4.0669222334673372e-03 -3.7715352792603305e-04 0.0000000000000000e+00  4.0726804759766908e-03 -1.3347263403827251e-03 0.0000000000000000e+00  3.0359453800415143e-03 -9.5241531626774818e-04 0.0000000000000000e+00  2.0171513665523488e-03 -6.1249112199631491e-04 0.0000000000000000e+00  1.0068733731087016e-03 -2.9967852714715308e-04 0.0000000000000000e+00  0.0000000000000000e+00 0.0000000000000000e+00 0.0000000000000000e+00  0.0000000000000000e+00 0.0000000000000000e+00 0.0000000000000000e+00  -1.3878002390280096e-03 -2.7007940814913856e-04 0.0000000000000000e+00  -2.8019498337640190e-03 -5.5013555854815130e-04 0.0000000000000000e+00  -4.2710824571635646e-03 -8.5031824737876881e-04 0.0000000000000000e+00  -5.8285011571855231e-03 -1.1809605960209444e-03 0.0000000000000000e+00  -5.8838174340247957e-03 -3.6749807758012886e-04 0.0000000000000000e+00  -5.8318403516893873e-03 4.4166686698244055e-04 0.0000000000000000e+00  -3.7953568020416737e-03 3.3905684747757170e-04 0.0000000000000000e+00  -1.8395464253799540e-03 2.7680370222766003e-04 0.0000000000000000e+00  7.8206863862601586e-05 2.5356439621354652e-04 0.0000000000000000e+00  1.9981914995979679e-03 2.6846159002584714e-04 0.0000000000000000e+00  3.9607152773182544e-03 3.2153289513118914e-04 0.0000000000000000e+00  6.0086682758038095e-03 4.1352688718247673e-04 0.0000000000000000e+00  6.0673277675763913e-03 -4.0202703915612979e-04 0.0000000000000000e+00  6.0160528996696001e-03 -1.2182026208964081e-03 0.0000000000000000e+00  4.4089014664738923e-03 -8.7616823926035022e-04 0.0000000000000000e+00  2.8923084793125850e-03 -5.6661573570153910e-04 0.0000000000000000e+00  1.4325036478314978e-03 -2.7812978134200006e-04 0.0000000000000000e+00  0.0000000000000000e+00 0.0000000000000000e+00 0.0000000000000000e+00  0.0000000000000000e+00 0.0000000000000000e+00 0.0000000000000000e+00  -1.7027336629332692e-03 -2.0308392324724768e-04 0.0000000000000000e+00  -3.4476577781343163e-03 -4.1173618031421641e-04 0.0000000000000000e+00  -5.2791571277001920e-03 -6.3142357830129020e-04 0.0000000000000000e+00  -7.2459865832967315e-03 -8.6738571022231632e-04 0.0000000000000000e+00  -7.3295945816248724e-03 -3.6439256497289524e-04 0.0000000000000000e+00  -7.2492821077155874e-03 1.3795613274707931e-04 0.0000000000000000e+00  -4.7029862385366168e-03 7.1662268525582947e-05 0.0000000000000000e+00  -2.2800465792280995e-03 2.8746428264785596e-05 0.0000000000000000e+00  8.3427122855474396e-05 8.8423114482141927e-06 0.0000000000000000e+00  2.4482297686383428e-03 1.1451173599953627e-05 0.0000000000000000e+00  4.8750703350980877e-03 3.5974630344136843e-05 0.0000000000000000e+00  7.4275408818367753e-03 8.1594578281373841e-05 0.0000000000000000e+00  7.5126909087922800e-03 -4.2062385417317052e-04 0.0000000000000000e+00  7.4315956542673799e-03 -9.2135688307054086e-04 0.0000000000000000e+00  5.4166039489352289e-03 -6.6977077220434656e-04 0.0000000000000000e+00  3.5384174113379579e-03 -4.3633714446833662e-04 0.0000000000000000e+00  1.7478470704518616e-03 -2.1510654084944716e-04 0.0000000000000000e+00  0.0000000000000000e+00 0.0000000000000000e+00 0.0000000000000000e+00  0.0000000000000000e+00 0.0000000000000000e+00 0.0000000000000000e+00  -1.8480328008628059e-03 -1.1382967365641049e-04 0.0000000000000000e+00  -3.7453390534340509e-03 -2.2917354142324044e-04 0.0000000000000000e+00  -5.7430737555613171e-03 -3.4738009540339249e-04 0.0000000000000000e+00  -7.8961552395493389e-03 -4.6947153803575381e-04 0.0000000000000000e+00  -7.9915978560386337e-03 -3.6411378850571688e-04 0.0000000000000000e+00  -7.8975896713995523e-03 -2.5946480529038905e-04 0.0000000000000000e+00  -5.1205191634318258e-03 -2.8881157920146303e-04 0.0000000000000000e+00  -2.4842652640907946e-03 -3.1091126988999342e-04 0.0000000000000000e+00  8.3262173286501756e-05 -3.2548672255970163e-04 0.0000000000000000e+00  2.6515431033293331e-03 -3.3278759704822073e-04 0.0000000000000000e+00  5.2900213245318560e-03 -3.3357197018597470e-04 0.0000000000000000e+00  8.0706885348938925e-03 -3.2915188081895068e-04 0.0000000000000000e+00  8.1665232827575398e-03 -4.2987579938922878e-04 0.0000000000000000e+00  8.0719553480480301e-03 -5.2957852903680715e-04 0.0000000000000000e+00  5.8739803015336557e-03 -3.9070075403119491e-04 0.0000000000000000e+00  3.8321501125334512e-03 -2.5721702313607234e-04 0.0000000000000000e+00  1.8912982796007469e-03 -1.2760074591910484e-04 0.0000000000000000e+00  -6.8216017323082418e-12 -5.6315669310788233e-12 0.0000000000000000e+00  0.0000000000000000e+00 0.0000000000000000e+00 0.0000000000000000e+00  -1.7954317305567326e-03 -1.8535352825184902e-05 0.0000000000000000e+00  -3.6395907634440791e-03 -3.5164118200236969e-05 0.0000000000000000e+00  -5.5827321393728500e-03 -4.7794011374707257e-05 0.0000000000000000e+00  -7.6781549329025907e-03 -5.3957595713187741e-05 0.0000000000000000e+00  -7.7716240019131202e-03 -3.6769789610034242e-04 0.0000000000000000e+00  -7.6790764787090194e-03 -6.8222520469115851e-04 0.0000000000000000e+00  -4.9781571091241650e-03 -6.7812936461166071e-04 0.0000000000000000e+00  -2.4151692123779754e-03 -6.8050825849522297e-04 0.0000000000000000e+00  8.0076321959363613e-05 -6.8875662125832094e-04 0.0000000000000000e+00  2.5756408353461370e-03 -7.0294728399555167e-04 0.0000000000000000e+00  5.1395619949304401e-03 -7.2381836224499625e-04 0.0000000000000000e+00  7.8419598611823866e-03 -7.5278577174013215e-04 0.0000000000000000e+00  7.9340801776511781e-03 -4.3283171102880051e-04 0.0000000000000000e+00  7.8398580275792322e-03 -1.1229050755893108e-04 0.0000000000000000e+00  5.7037909427198321e-03 -9.0064687155744574e-05 0.0000000000000000e+00  3.7201769904408018e-03 -6.2644637759666751e-05 0.0000000000000000e+00  1.8356836995192668e-03 -3.2065756355629439e-05 0.0000000000000000e+00  0.0000000000000000e+00 0.0000000000000000e+00 0.0000000000000000e+00  0.0000000000000000e+00 0.0000000000000000e+00 0.0000000000000000e+00  -1.5470933571675794e-03 6.9133114470197363e-05 0.0000000000000000e+00  -3.1361604536601561e-03 1.4284871949047815e-04 0.0000000000000000e+00  -4.8103498245960011e-03 2.2591971688468314e-04 0.0000000000000000e+00  -6.6150996515831001e-03 3.2351173416928495e-04 0.0000000000000000e+00  -6.6957129669483967e-03 -3.7486415123030663e-04 0.0000000000000000e+00  -6.6165110659089097e-03 -1.0739456036045526e-03 0.0000000000000000e+00  -4.2873402397828643e-03 -1.0416784586930611e-03 0.0000000000000000e+00  -2.0766136232366799e-03 -1.0267504726450254e-03 0.0000000000000000e+00  7.5691483307347232e-05 -1.0283819780392601e-03 0.0000000000000000e+00  2.2279833982750451e-03 -1.0465196647267492e-03 0.0000000000000000e+00  4.4386523408316749e-03 -1.0818333487913035e-03 0.0000000000000000e+00  6.7676680292261390e-03 -1.1357209967397459e-03 0.0000000000000000e+00  6.8446332235449839e-03 -4.3110631350653264e-04 0.0000000000000000e+00  6.7620911317161697e-03 2.7384974482820232e-04 0.0000000000000000e+00  4.9209228515105629e-03 1.8977510062544633e-04 0.0000000000000000e+00  3.2100160388695447e-03 1.1927720100642635e-04 0.0000000000000000e+00  1.5840565302849773e-03 5.7505145701853874e-05 0.0000000000000000e+00  0.0000000000000000e+00 0.0000000000000000e+00 0.0000000000000000e+00  0.0000000000000000e+00 0.0000000000000000e+00 0.0000000000000000e+00  -1.1299197222195787e-03 1.3848844929912181e-04 0.0000000000000000e+00  -2.2903746536530960e-03 2.8344919548681328e-04 0.0000000000000000e+00  -3.5127290216901371e-03 4.4154728071626841e-04 0.0000000000000000e+00  -4.8298574539156766e-03 6.1984595436964120e-04 0.0000000000000000e+00  -4.8893383042773646e-03 -3.8507855513615445e-04 0.0000000000000000e+00  -4.8324408244894840e-03 -1.3905476273299152e-03 0.0000000000000000e+00  -3.1258968127135015e-03 -1.3361665305131260e-03 0.0000000000000000e+00  -1.5057995143331236e-03 -1.3070502507113134e-03 0.0000000000000000e+00  7.1493645269170766e-05 -1.3022823208380459e-03 0.0000000000000000e+00  1.6485269040482865e-03 -1.3216963567843120e-03 0.0000000000000000e+00  3.2678267403603032e-03 -1.3658752141528614e-03 0.0000000000000000e+00  4.9729829714286848e-03 -1.4361532836017687e-03 0.0000000000000000e+00  5.0263451441027998e-03 -4.2620809132054685e-04 0.0000000000000000e+00  4.9640868438590854e-03 5.8389141292456738e-04 0.0000000000000000e+00  3.6141577206598077e-03 4.1530866016589046e-04 0.0000000000000000e+00  2.3583374748711505e-03 2.6630308088812737e-04 0.0000000000000000e+00  1.1639966961760403e-03 1.3001910027256455e-04 0.0000000000000000e+00  0.0000000000000000e+00 0.0000000000000000e+00 0.0000000000000000e+00  0.0000000000000000e+00 0.0000000000000000e+00 0.0000000000000000e+00  -5.8951184186015844e-04 1.8197392251166009e-04 0.0000000000000000e+00  -1.1949970251149999e-03 3.7151132431470106e-04 0.0000000000000000e+00  -1.8328967617429587e-03 5.7637086000800273e-04 0.0000000000000000e+00  -2.5203820156312643e-03 8.0470745926419416e-04 0.0000000000000000e+00  -2.5530835498261827e-03 -3.9736429329291945e-04 0.0000000000000000e+00  -2.5243898816114147e-03 -1.5997190015371618e-03 0.0000000000000000e+00  -1.6217508857803464e-03 -1.5299059675449346e-03 0.0000000000000000e+00  -7.6516526753613230e-04 -1.4902723087263903e-03 0.0000000000000000e+00  6.8473197696364955e-05 -1.4797770843801093e-03 0.0000000000000000e+00  9.0168924627469552e-04 -1.4981443649358741e-03 0.0000000000000000e+00  1.7569870288202056e-03 -1.5458630256294553e-03 0.0000000000000000e+00  2.6574117064076925e-03 -1.6241879545734359e-03 0.0000000000000000e+00  2.6817876922749962e-03 -4.1921951813049275e-04 0.0000000000000000e+00 