<?xml version="1.0"?>
<VTKFile type="UnstructuredGrid"  version="0.1"  >
<UnstructuredGrid>
<Piece  NumberOfPoints="589" NumberOfCells="1080">
<Points>
<DataArray  type="Float64"  NumberOfComponents="3"  format="ascii">-9 0 0  -8 0 0  -7 0 0  -6 0 0  -5 0 0  -4 0 0  -3 0 0  -2 0 0  -1 0 0  0 0 0  1 0 0  2 0 0  3 0 0  4 0 0  5 0 0  6 0 0  7 0 0  8 0 0  9 0 0  -9 2 0  -8.000002703263965 1.99999550813294 0  -7.000005735422571 1.999991580816143 0  -6.000009832034762 1.999988678158921 0  -5.000016641478995 1.99998700502126 0  -4.000009615591495 1.999990201977118 0  -3.000002316974706 1.999993307533839 0  -1.99999874826676 1.999996247714156 0  -0.9999981470973057 1.999998552411493 0  6.298062579244476e-07 1.999999494702713 0  0.9999993695564483 1.999998610847894 0  1.999999842482093 1.999996038304111 0  3.000003285743379 1.99999281817842 0  4.000010199435208 1.999989136598614 0  5.000020364213818 1.999986882864741 0  6.000012643817549 1.999987874138265 0  7.000007636404474 1.999990822596839 0  8.000003666263144 1.999995079557962 0  9 2 0  -9.000000000004983 4 0  -8.000004090931247 3.999988758183693 0  -7.000007213045371 3.999979063080454 0  -6.000008812724869 3.999972438287004 0  -5.000009044158099 3.99997035335453 0  -3.999998588032696 3.999971590980542 0  -2.999991503064471 3.999980389317891 0  -1.999989576230085 3.999991960174504 0  -0.9999921322429647 4.00000123295368 0  2.876038346562014e-06 4.00000479157699 0  0.9999978404511032 4.000001337716585 0  1.999995171015958 3.99999252618655 0  2.999997304178768 3.999980536541494 0  4.000004998362008 3.999968113420858 0  5.000016404583444 3.999962695066121 0  6.000014435625387 3.999967919662416 0  7.000011123646862 3.999976411369342 0  8.000006116923441 3.999987505379445 0  9 4 0  -9 6 0  -8.000009353721179 5.999975821986188 0  -7.000014780411116 5.999954264668698 0  -6.000013266392689 5.999938039522883 0  -5.000003910379867 5.999929789986479 0  -3.999983303753955 5.999942608771485 0  -2.999973744445365 5.999970077073055 0  -1.999976981336254 5.999999035791328 0  -0.9999858131345931 6.000015295081522 0  5.029697328220622e-06 6.000018421877357 0  0.9999966565590022 6.000012598211383 0  1.999990306539092 5.999996802085168 0  2.999988224572377 5.999970181796859 0  3.999993827920075 5.99994226393441 0  5.000012632105793 5.999927563183876 0  6.000021599533986 5.999934897347449 0  7.000021389662877 5.999951591649973 0  8.000013008067425 5.999974329458462 0  9 6 0  -9 8 0  -8.000030323098102 7.999952405804102 0  -7.000050109555129 7.999908140619999 0  -6.000049087343962 7.999871741396532 0  -5.000018305394043 7.99985070975701 0  -3.999978831038602 7.999911009991505 0  -2.999984707952311 7.999982290342088 0  -1.99999834812518 8.000017782400411 0  -0.9999990912485985 8.000022783607601 0  9.798884185380633e-06 8.000024378426449 0  1.000016204413584 8.000027896412218 0  2.000013084717255 8.000011652515447 0  2.999995209763984 7.999984044937885 0  3.999989407298977 7.999917454004422 0  5.000030469111925 7.99984259459008 0  6.000065470367981 7.999864439098224 0  7.000064339801875 7.999902601534294 0  8.000038402627615 7.9999494254124 0  9 8 0  -9 10 0  -8.000093425263694 9.999915684791905 0  -7.000168657695594 9.999830570116945 0  -6.000203932265851 9.999744001702707 0  -5.000168852901967 9.99965565988046 0  -4.000106959769928 9.999848561477757 0  -3.000114533488101 10.00001521854651 0  -2.000088185281632 9.999989641731929 0  -1.000033671910717 9.99998146713588 0  7.364827636641612e-06 9.999979468239115 0  1.000048581236944 9.99997931540817 0  2.000103987476117 9.999977084229696 0  3.000152054736869 10.00003919895525 0  4.000145786597699 9.999866857770392 0  5.000221504272894 9.999640352911635 0  6.000253835096862 9.999728735470512 0  7.000206494913339 9.999818980566729 0  8.000113644668867 9.999909528112072 0  9 10 0  -9 12 0  -8.000229235770858 11.99988218515256 0  -7.000446934180505 11.99975885409045 0  -6.000639993530838 11.99962342431298 0  -5.000792112784113 11.99946674569907 0  -4.000760427898606 11.99981537258751 0  -3.00078600457709 12.00016032187031 0  -2.000518968379119 12.00012235878522 0  -1.000225770817062 12.00010364816 0  7.640959852122211e-05 12.00010338675408 0  1.000379616660638 12.00012259837917 0  2.000676583932381 12.00016598787093 0  3.00095260340104 12.00024502621893 0  4.00091994855623 11.99983125892234 0  5.000943917132729 11.99941396266301 0  6.00076071599088 11.99958564357582 0  7.000530605454354 11.99973418792664 0  8.000272011938875 11.99986995719749 0  9 12 0  -9 14 0  -8.000411067266951 13.99987077651662 0  -7.000823561021923 13.99973557816231 0  -6.001239462636892 13.99958790830126 0  -5.00166223724305 13.99942025037949 0  -4.00166623126179 13.99982334189769 0  -3.001665829333807 14.00023137278023 0  -2.001054641063837 14.00017811495652 0  -1.000453894546112 14.00015207582819 0  0.0001414071196602803 14.00014945605652 0  1.000735843881491 14.0001692248258 0  2.00133338799843 14.0002123775523 0  3.001936754279392 14.00028117692706 0  4.001940733473925 13.99981442636412 0  5.001946455289837 13.99935019170093 0  6.001454862619465 13.9995352206106 0  7.000968428566737 13.99970056955799 0  8.000483914955412 13.99985333306231 0  9 14 0  -9 16 0  -8.000587019421499 15.99988328437519 0  -7.001186269808317 15.9997622246655 0  -6.001810976826514 15.99963239957953 0  -5.002476442941743 15.99948931015512 0  -4.002500322020164 15.99982624225199 0  -3.002474865003737 16.00016104241067 0  -2.001549010787695 16.00012514428328 0  -1.000660427424179 16.00010694671325 0  0.0002099017722017536 16.00010608233011 0  1.00107990367278 16.00012242721615 0  2.001967425857539 16.00015629446112 0  3.002891368488021 16.0002083435525 0  4.002917689262678 15.99980169684633 0  5.002896547387519 15.99939446442109 0  6.002127742300318 15.99956360370417 0  7.001398183345445 15.99971735351215 0  8.000693190102545 15.99986112759819 0  9 16 0  -9 18 0  -8.000713867801947 17.99991317272417 0  -7.0014468240201 17.99982394996486 0  -6.002218925458943 17.99972997764731 0  -5.003052177850883 17.99962900129223 0  -4.003088525486294 17.99982508007544 0  -3.00305098118733 18.00002059928536 0  -2.001894901293295 18.00000149711167 0  -1.000794212967508 17.99999261529259 0  0.0002797228548871817 17.99999400181371 0  1.001354184125343 18.00000566925276 0  2.002456412889581 18.00002760959413 0  3.003614933567694 18.00005974162046 0  4.003653948078835 17.99979174943894 0  5.003618251359735 17.99952416868918 0  6.00264290765659 17.99965360165696 0  7.001729212411537 17.99977407590564 0  8.000854984155861 17.9998885426865 0  9 18 0  -9 20 0  -8.000764195046752 19.99995264020411 0  -7.001550461993134 19.99990467836732 0  -6.002381714469548 19.99985558273095 0  -5.003282554738886 19.99980496359272 0  -4.003324053933847 19.99982268785536 0  -3.003280892188603 19.99983984852177 0  -2.002019918956416 19.99983706149491 0  -1.000821306388819 19.99983730745157 0  0.0003474524743746753 19.99984089535154 0  1.001517734643866 19.999847915573 0  2.002720937787432 19.99985824855132 0  3.003989639808481 19.99987154538534 0  4.004034246151796 19.99978610012359 0  5.003991408637701 19.9997008907728 0  6.00291072285369 19.99977945192509 0  7.001901902465392 19.99985483753238 0  8.00093955026326 19.99992799291665 0  8.999999999970841 19.99999999999801 0  -9 22 0  -8.000726077435248 21.99999451339525 0  -7.001473820271212 21.99998994281094 0  -6.002265583525294 21.99998728510885 0  -5.003125098047088 21.99998770062123 0  -4.003165525471113 21.99981875186325 0  -3.003123406418436 21.99964924200222 0  -2.00189620860593 21.99966052485395 0  -1.000729313631466 21.99966866661471 0  0.0004091052753218013 21.99967409542051 0  1.00154996421452 21.99967694526442 0  2.002724220950124 21.99967706217326 0  3.003963829688125 21.99967399920995 0  4.004007484449689 21.99978354956079 0  5.003963929722348 21.99989317933267 0  6.002890349272628 21.99991800179502 0  7.001888278249835 21.99994451553109 0  8.000932694531953 21.999972027713 0  9 22 0  -9 24 0  -8.000601131202252 24.00003272415381 0  -7.001220744131725 24.00006755835725 0  -6.001877859091798 24.0001066976361 0  -5.002592527365871 24.00015250957096 0  -4.002626928405919 23.99981356641285 0  -3.002591104833856 23.99947412500233 0  -2.001531991723593 23.99949652287734 0  -1.000523737114003 23.99951085060491 0  0.0004610245755712465 23.99951758517455 0  1.001448980076548 23.99951687971641 0  2.002466867838724 23.99950856559294 0  3.003542210623169 23.9994921504961 0  4.003579622364521 23.9997835721768 0  5.003540711002702 24.00007498745671 0  6.002583247769164 24.00004977883922 0  7.001688292047432 24.00003019346266 0  8.000834093640083 24.00001421582889 0  9 24 0  -9 26 0  -8.00040204659736 26.00006249996398 0  -7.000817290825601 26.00012795926699 0  -6.00125929481292 26.00019942484579 0  -5.00174231611016 26.00028012146112 0  -4.001766922391271 25.99980749180799 0  -3.001741397144547 25.99933444236486 0  -2.00096502709484 25.99936473392563 0  -1.000224499421729 25.9993833412573 0  0.0005002015220312355 25.99939076950121 0  1.001228647330547 25.99938718284119 0  2.001980465092847 25.99937240540534 0  3.002775841420813 25.99934592040353 0  4.002802979900671 25.99978560756174 0  5.00277284496254 26.00022520360387 0  6.002025444375222 26.00015905764567 0  7.001324870618887 26.00010143797424 0  8.000654884332484 26.00004935616312 0  9 26 0  -9 28 0  -8.000149938842254 28.00008044417963 0  -7.000306377132928 28.00016434131264 0  -6.000476006189673 28.00025523411902 0  -5.000665857383946 28.00035684560094 0  -4.00067813327933 27.99980099066808 0  -3.000665589619767 27.99924481802625 0  -2.000255372084786 27.99927960985442 0  -0.9998622636942989 27.99930047666331 0  0.0005244303743883973 27.99930794206578 0  1.000915197917469 27.9993021774997 0  2.001320584697921 27.99928300273612 0  3.001751459953134 27.99924988535236 0  4.001765609505096 27.99978916716909 0  5.001747177603262 28.00032829565123 0  6.001279657887815 28.00023423002287 0  7.000838678287167 28.00015053257139 0  8.0004150
[...]
<PointData  Vectors="f_42"> 
<DataArray  type="Float64"  Name="f_42"  NumberOfComponents="3" format="ascii">0.0000000000000000e+00 0.0000000000000000e+00 0.0000000000000000e+00  0.0000000000000000e+00 0.0000000000000000e+00 0.0000000000000000e+00  0.0000000000000000e+00 0.0000000000000000e+00 0.0000000000000000e+00  0.0000000000000000e+00 0.0000000000000000e+00 0.0000000000000000e+00  0.0000000000000000e+00 0.0000000000000000e+00 0.0000000000000000e+00  0.0000000000000000e+00 0.0000000000000000e+00 0.0000000000000000e+00  0.0000000000000000e+00 0.0000000000000000e+00 0.0000000000000000e+00  0.0000000000000000e+00 0.0000000000000000e+00 0.0000000000000000e+00  0.0000000000000000e+00 0.0000000000000000e+00 0.0000000000000000e+00  0.0000000000000000e+00 0.0000000000000000e+00 0.0000000000000000e+00  0.0000000000000000e+00 0.0000000000000000e+00 0.0000000000000000e+00  0.0000000000000000e+00 0.0000000000000000e+00 0.0000000000000000e+00  0.0000000000000000e+00 0.0000000000000000e+00 0.0000000000000000e+00  0.0000000000000000e+00 0.0000000000000000e+00 0.0000000000000000e+00  0.0000000000000000e+00 0.0000000000000000e+00 0.0000000000000000e+00  0.0000000000000000e+00 0.0000000000000000e+00 0.0000000000000000e+00  0.0000000000000000e+00 0.0000000000000000e+00 0.0000000000000000e+00  0.0000000000000000e+00 0.0000000000000000e+00 0.0000000000000000e+00  0.0000000000000000e+00 0.0000000000000000e+00 0.0000000000000000e+00  0.0000000000000000e+00 0.0000000000000000e+00 0.0000000000000000e+00  -2.7032639749211894e-06 -4.4918670580834064e-06 0.0000000000000000e+00  -5.7354225663326291e-06 -8.4191838569881890e-06 0.0000000000000000e+00  -9.8320347624592618e-06 -1.1321841078536356e-05 0.0000000000000000e+00  -1.6641479005315673e-05 -1.2994978742298413e-05 0.0000000000000000e+00  -9.6155914930534879e-06 -9.7980228811587767e-06 0.0000000000000000e+00  -2.3169747096248508e-06 -6.6924661605939039e-06 0.0000000000000000e+00  1.2517332409320180e-06 -3.7522858444448058e-06 0.0000000000000000e+00  1.8529026932345724e-06 -1.4475885055110476e-06 0.0000000000000000e+00  6.2980625792444755e-07 -5.0529728910738955e-07 0.0000000000000000e+00  -6.3044355101005994e-07 -1.3891521049179089e-06 0.0000000000000000e+00  -1.5751790738506036e-07 -3.9616958865933341e-06 0.0000000000000000e+00  3.2857433811455028e-06 -7.1818215821081408e-06 0.0000000000000000e+00  1.0199435210725943e-05 -1.0863401385919408e-05 0.0000000000000000e+00  2.0364213817287626e-05 -1.3117135258618064e-05 0.0000000000000000e+00  1.2643817545778863e-05 -1.2125861734494542e-05 0.0000000000000000e+00  7.6364044698900549e-06 -9.1774031624295802e-06 0.0000000000000000e+00  3.6662631388537849e-06 -4.9204420387723608e-06 0.0000000000000000e+00  0.0000000000000000e+00 0.0000000000000000e+00 0.0000000000000000e+00  -4.9820587634006413e-12 0.0000000000000000e+00 0.0000000000000000e+00  -4.0909312430787775e-06 -1.1241816308368342e-05 0.0000000000000000e+00  -7.2130453649371768e-06 -2.0936919545924249e-05 0.0000000000000000e+00  -8.8127248698018165e-06 -2.7561712997205313e-05 0.0000000000000000e+00  -9.0441581047882999e-06 -2.9646645467836061e-05 0.0000000000000000e+00  1.4119673012044867e-06 -2.8409019457197862e-05 0.0000000000000000e+00  8.4969355271441486e-06 -1.9610682107618486e-05 0.0000000000000000e+00  1.0423769914557052e-05 -8.0398254980212483e-06 0.0000000000000000e+00  7.8677570353511286e-06 1.2329536802753410e-06 0.0000000000000000e+00  2.8760383465620136e-06 4.7915769916703055e-06 0.0000000000000000e+00  -2.1595488965003146e-06 1.3377165913381589e-06 0.0000000000000000e+00  -4.8289840420563084e-06 -7.4738134505807052e-06 0.0000000000000000e+00  -2.6958212297562237e-06 -1.9463458505951617e-05 0.0000000000000000e+00  4.9983620059550546e-06 -3.1886579140811079e-05 0.0000000000000000e+00  1.6404583439274843e-05 -3.7304933876877726e-05 0.0000000000000000e+00  1.4435625381153267e-05 -3.2080337580976497e-05 0.0000000000000000e+00  1.1123646864029489e-05 -2.3588630657566641e-05 0.0000000000000000e+00  6.1169234499975216e-06 -1.2494620557453710e-05 0.0000000000000000e+00  0.0000000000000000e+00 0.0000000000000000e+00 0.0000000000000000e+00  0.0000000000000000e+00 0.0000000000000000e+00 0.0000000000000000e+00  -9.3537211922511128e-06 -2.4178013819330443e-05 0.0000000000000000e+00  -1.4780411112615915e-05 -4.5735331301025393e-05 0.0000000000000000e+00  -1.3266392695970297e-05 -6.1960477112702139e-05 0.0000000000000000e+00  -3.9103798658430172e-06 -7.0210013515285754e-05 0.0000000000000000e+00  1.6696246045468878e-05 -5.7391228510500750e-05 0.0000000000000000e+00  2.6255554636092166e-05 -2.9922926942278393e-05 0.0000000000000000e+00  2.3018663746687559e-05 -9.6420867964147039e-07 0.0000000000000000e+00  1.4186865406806071e-05 1.5295081524230236e-05 0.0000000000000000e+00  5.0296973282206224e-06 1.8421877351911447e-05 0.0000000000000000e+00  -3.3434409982593025e-06 1.2598211387269344e-05 0.0000000000000000e+00  -9.6934609069167064e-06 -3.1979148360622844e-06 0.0000000000000000e+00  -1.1775427624579461e-05 -2.9818203135652618e-05 0.0000000000000000e+00  -6.1720799254418857e-06 -5.7736065589130905e-05 0.0000000000000000e+00  1.2632105795873186e-05 -7.2436816123975050e-05 0.0000000000000000e+00  2.1599533978556126e-05 -6.5102652547686501e-05 0.0000000000000000e+00  2.1389662874463976e-05 -4.8408350027548322e-05 0.0000000000000000e+00  1.3008067424752879e-05 -2.5670541538118530e-05 0.0000000000000000e+00  0.0000000000000000e+00 0.0000000000000000e+00 0.0000000000000000e+00  0.0000000000000000e+00 0.0000000000000000e+00 0.0000000000000000e+00  -3.0323098113189391e-05 -4.7594195895615659e-05 0.0000000000000000e+00  -5.0109555131599886e-05 -9.1859380002294486e-05 0.0000000000000000e+00  -4.9087343961325452e-05 -1.2825860347268785e-04 0.0000000000000000e+00  -1.8305394042540623e-05 -1.4929024297783946e-04 0.0000000000000000e+00  2.1168961399923499e-05 -8.8990008489584375e-05 0.0000000000000000e+00  1.5292047688189723e-05 -1.7709657914463272e-05 0.0000000000000000e+00  1.6518748198495411e-06 1.7782400412544125e-05 0.0000000000000000e+00  9.0875140123015683e-07 2.2783607603958272e-05 0.0000000000000000e+00  9.7988841853806329e-06 2.4378426444448075e-05 0.0000000000000000e+00  1.6204413585142373e-05 2.7896412204105588e-05 0.0000000000000000e+00  1.3084717254705625e-05 1.1652515436550127e-05 0.0000000000000000e+00  -4.7902360171674847e-06 -1.5955062109068145e-05 0.0000000000000000e+00  -1.0592701023928449e-05 -8.2545995577035231e-05 0.0000000000000000e+00  3.0469111918521081e-05 -1.5740540992747326e-04 0.0000000000000000e+00  6.5470367981822634e-05 -1.3556090177591364e-04 0.0000000000000000e+00  6.4339801876188438e-05 -9.7398465715935073e-05 0.0000000000000000e+00  3.8402627607268147e-05 -5.0574587600766005e-05 0.0000000000000000e+00  0.0000000000000000e+00 0.0000000000000000e+00 0.0000000000000000e+00  0.0000000000000000e+00 0.0000000000000000e+00 0.0000000000000000e+00  -9.3425263692760506e-05 -8.4315208091529165e-05 0.0000000000000000e+00  -1.6865769559182712e-04 -1.6942988305474873e-04 0.0000000000000000e+00  -2.0393226585221745e-04 -2.5599829728982439e-04 0.0000000000000000e+00  -1.6885290197207287e-04 -3.4434011953761228e-04 0.0000000000000000e+00  -1.0695976992478249e-04 -1.5143852224148698e-04 0.0000000000000000e+00  -1.1453348810248834e-04 1.5218546507551628e-05 0.0000000000000000e+00  -8.8185281636016141e-05 -1.0358268062790528e-05 0.0000000000000000e+00  -3.3671910717765365e-05 -1.8532864125897571e-05 0.0000000000000000e+00  7.3648276366416123e-06 -2.0531760892105704e-05 0.0000000000000000e+00  4.8581236946483411e-05 -2.0684591829990611e-05 0.0000000000000000e+00  1.0398747611883741e-04 -2.2915770308122766e-05 0.0000000000000000e+00  1.5205473686724584e-04 3.9198955245142393e-05 0.0000000000000000e+00  1.4578659770062317e-04 -1.3314222960778436e-04 0.0000000000000000e+00  2.2150427289997792e-04 -3.5964708837007482e-04 0.0000000000000000e+00  2.5383509686924228e-04 -2.7126452948575153e-04 0.0000000000000000e+00  2.0649491333799231e-04 -1.8101943327001376e-04 0.0000000000000000e+00  1.1364466885834147e-04 -9.0471887926573652e-05 0.0000000000000000e+00  0.0000000000000000e+00 0.0000000000000000e+00 0.0000000000000000e+00  0.0000000000000000e+00 0.0000000000000000e+00 0.0000000000000000e+00  -2.2923577085707074e-04 -1.1781484744407846e-04 0.0000000000000000e+00  -4.4693418050488579e-04 -2.4114590954919988e-04 0.0000000000000000e+00  -6.3999353083842568e-04 -3.7657568700118872e-04 0.0000000000000000e+00  -7.9211278410934720e-04 -5.3325430092891497e-04 0.0000000000000000e+00  -7.6042789860799166e-04 -1.8462741248829206e-04 0.0000000000000000e+00  -7.8600457709081121e-04 1.6032187031935106e-04 0.0000000000000000e+00  -5.1896837911926395e-04 1.2235878522751456e-04 0.0000000000000000e+00  -2.2577081706083029e-04 1.0364815999942198e-04 0.0000000000000000e+00  7.6409598521222106e-05 1.0338675409118865e-04 0.0000000000000000e+00  3.7961666063717592e-04 1.2259837916693428e-04 0.0000000000000000e+00  6.7658393237886988e-04 1.6598787093003199e-04 0.0000000000000000e+00  9.5260340103984326e-04 2.4502621891094088e-04 0.0000000000000000e+00  9.1994855623205084e-04 -1.6874107765348139e-04 0.0000000000000000e+00  9.4391713272110186e-04 -5.8603733698557874e-04 0.0000000000000000e+00  7.6071599087948537e-04 -4.1435642417671621e-04 0.0000000000000000e+00  5.3060545436089132e-04 -2.6581207336625462e-04 0.0000000000000000e+00  2.7201193886748301e-04 -1.3004280251090717e-04 0.0000000000000000e+00  0.0000000000000000e+00 0.0000000000000000e+00 0.0000000000000000e+00  0.0000000000000000e+00 0.0000000000000000e+00 0.0000000000000000e+00  -4.1106726696363554e-04 -1.2922348337952118e-04 0.0000000000000000e+00  -8.2356102192581891e-04 -2.6442183769288075e-04 0.0000000000000000e+00  -1.2394626368949205e-03 -4.1209169875022631e-04 0.0000000000000000e+00  -1.6622372430546597e-03 -5.7974962051289265e-04 0.0000000000000000e+00  -1.6662312617930044e-03 -1.7665810230108232e-04 0.0000000000000000e+00  -1.6658293338052453e-03 2.3137278022396739e-04 0.0000000000000000e+00  -1.0546410638360207e-03 1.7811495651495253e-04 0.0000000000000000e+00  -4.5389454611075941e-04 1.5207582818260750e-04 0.0000000000000000e+00  1.4140711966028030e-04 1.4945605651641428e-04 0.0000000000000000e+00  7.3584388148936850e-04 1.6922482581136918e-04 0.0000000000000000e+00  1.3333879984342024e-03 2.1237755229837148e-04 0.0000000000000000e+00  1.9367542793922643e-03 2.8117692705445887e-04 0.0000000000000000e+00  1.9407334739160299e-03 -1.8557363588914721e-04 0.0000000000000000e+00  1.9464552898400299e-03 -6.4980829907506396e-04 0.0000000000000000e+00  1.4548626194628525e-03 -4.6477938940776988e-04 0.0000000000000000e+00  9.6842856673536753e-04 -2.9943044202479914e-04 0.0000000000000000e+00  4.8391495540924082e-04 -1.4666693768981923e-04 0.0000000000000000e+00  0.0000000000000000e+00 0.0000000000000000e+00 0.0000000000000000e+00  0.0000000000000000e+00 0.0000000000000000e+00 0.0000000000000000e+00  -5.8701942148490019e-04 -1.1671562480971296e-04 0.0000000000000000e+00  -1.1862698083185573e-03 -2.3777533450198611e-04 0.0000000000000000e+00  -1.8109768265126744e-03 -3.6760042046117368e-04 0.0000000000000000e+00  -2.4764429417436866e-03 -5.1068984489023540e-04 0.0000000000000000e+00  -2.5003220201627006e-03 -1.7375774799826703e-04 0.0000000000000000e+00  -2.4748650037369896e-03 1.6104241067793404e-04 0.0000000000000000e+00  -1.5490107876962856e-03 1.2514428328387142e-04 0.0000000000000000e+00  -6.6042742417927818e-04 1.0694671324475498e-04 0.0000000000000000e+00  2.0990177220175363e-04 1.0608233011497514e-04 0.0000000000000000e+00  1.0799036727792237e-03 1.2242721614932577e-04 0.0000000000000000e+00  1.9674258575361732e-03 1.5629446110939634e-04 0.0000000000000000e+00  2.8913684880259144e-03 2.0834355249022959e-04 0.0000000000000000e+00  2.9176892626755825e-03 -1.9830315365079366e-04 0.0000000000000000e+00  2.8965473875243474e-03 -6.0553557891118346e-04 0.0000000000000000e+00  2.1277423003230830e-03 -4.3639629582353502e-04 0.0000000000000000e+00  1.3981833454413503e-03 -2.8264648785945173e-04 0.0000000000000000e+00  6.9319010254945189e-04 -1.3887240180938428e-04 0.0000000000000000e+00  0.0000000000000000e+00 0.0000000000000000e+00 0.0000000000000000e+00  0.0000000000000000e+00 0.0000000000000000e+00 0.0000000000000000e+00  -7.1386780193231751e-04 -8.6827275809877379e-05 0.0000000000000000e+00  -1.4468240200999237e-03 -1.7605003513034771e-04 0.0000000000000000e+00  -2.2189254589417475e-03 -2.7002235268615315e-04 0.0000000000000000e+00  -3.0521778508852916e-03 -3.7099870774593780e-04 0.0000000000000000e+00  -3.0885254862922881e-03 -1.7491992457975423e-04 0.0000000000000000e+00  -3.0509811873309358e-03 2.0599285377652547e-05 0.0000000000000000e+00  -1.8949012932941327e-03 1.4971116682912104e-06 0.0000000000000000e+00  -7.9421296751083000e-04 -7.3847074117283540e-06 0.0000000000000000e+00  2.7972285488718165e-04 -5.9981862775163755e-06 0.0000000000000000e+00  1.3541841253437283e-03 5.6692527594970630e-06 0.0000000000000000e+00  2.4564128895777594e-03 2.7609594114523175e-05 0.0000000000000000e+00  3.6149335676952193e-03 5.9741620445667915e-05 0.0000000000000000e+00  3.6539480788353885e-03 -2.0825056106944001e-04 0.0000000000000000e+00  3.6182513597361517e-03 -4.7583131084711890e-04 0.0000000000000000e+00  2.6429076565951124e-03 -3.4639834304622038e-04 0.0000000000000000e+00  1.7292124115438363e-03 -2.2592409435071581e-04 0.0000000000000000e+00  8.5498415585962787e-04 -1.1145731349441852e-04 0.0000000000000000e+00  0.0000000000000000e+00 0.0000000000000000e+00 0.0000000000000000e+00  0.0000000000000000e+00 0.0000000000000000e+00 0.0000000000000000e+00  -7.6419504674374913e-04 -4.7359795890835182e-05 0.0000000000000000e+00  -1.5504619931327318e-03 -9.5321632674556358e-05 0.0000000000000000e+00  -2.3817144695534717e-03 -1.4441726902167520e-04 0.0000000000000000e+00  -3.2825547388885246e-03 -1.9503640727017101e-04 0.0000000000000000e+00  -3.3240539338474113e-03 -1.7731214463093518e-04 0.0000000000000000e+00  -3.2808921886066447e-03 -1.6015147823503551e-04 0.0000000000000000e+00  -2.0199189564154064e-03 -1.6293850509088560e-04 0.0000000000000000e+00  -8.2130638881977634e-04 -1.6269254843855527e-04 0.0000000000000000e+00  3.4745247437467533e-04 -1.5910464843205311e-04 0.0000000000000000e+00  1.5177346438666147e-03 -1.5208442699740109e-04 0.0000000000000000e+00  2.7209377874372700e-03 -1.4175144867771436e-04 0.0000000000000000e+00  3.9896398084825072e-03 -1.2845461468235597e-04 0.0000000000000000e+00  4.0342461517985677e-03 -2.1389987643062502e-04 0.0000000000000000e+00  3.9914086376993362e-03 -2.9910922718230995e-04 0.0000000000000000e+00  2.9107228536888546e-03 -2.2054807492283659e-04 0.0000000000000000e+00  1.9019024653914580e-03 -1.4516246762037006e-04 0.0000000000000000e+00  9.3955026324097474e-04 -7.2007083372554049e-05 0.0000000000000000e+00  -2.9160949412213029e-11 -1.9824869010477658e-12 0.0000000000000000e+00  0.0000000000000000e+00 0.0000000000000000e+00 0.0000000000000000e+00  -7.2607743524285770e-04 -5.4866047487275335e-06 0.0000000000000000e+00  -1.4738202712151018e-03 -1.0057189066108215e-05 0.0000000000000000e+00  -2.2655835252950117e-03 -1.2714891145729967e-05 0.0000000000000000e+00  -3.1250980470868685e-03 -1.2299378757895749e-05 0.0000000000000000e+00  -3.1655254711161927e-03 -1.8124813672766780e-04 0.0000000000000000e+00  -3.1234064184381292e-03 -3.5075799777683337e-04 0.0000000000000000e+00  -1.8962086059264318e-03 -3.3947514602052195e-04 0.0000000000000000e+00  -7.2931363146703815e-04 -3.3133338528526073e-04 0.0000000000000000e+00  4.0910527532180132e-04 -3.2590457950596612e-04 0.0000000000000000e+00  1.5499642145198785e-03 -3.2305473560013839e-04 0.0000000000000000e+00  2.7242209501236233e-03 -3.2293782676631109e-04 0.0000000000000000e+00  3.9638296881247233e-03 -3.2600079006530518e-04 0.0000000000000000e+00  4.0074844496925032e-03 -2.1645043919266393e-04 0.0000000000000000e+00  3.9639297223463665e-03 -1.0682066733097113e-04 0.0000000000000000e+00  2.8903492726251390e-03 -8.1998204979878648e-05 0.0000000000000000e+00  1.8882782498281488e-03 -5.5484468889680527e-05 0.0000000000000000e+00  9.3269453194857544e-04 -2.7972286984088606e-05 0.0000000000000000e+00  0.0000000000000000e+00 0.0000000000000000e+00 0.0000000000000000e+00  0.0000000000000000e+00 0.0000000000000000e+00 0.0000000000000000e+00  -6.0113120224211756e-04 3.2724153802901988e-05 0.0000000000000000e+00  -1.2207441317279000e-03 6.7558357274492928e-05 0.0000000000000000e+00  -1.8778590918025124e-03 1.0669763610089349e-04 0.0000000000000000e+00  -2.5925273658603974e-03 1.5250957095356223e-04 0.0000000000000000e+00  -2.6269284059190633e-03 -1.8643358713462741e-04 0.0000000000000000e+00  -2.5911048338561810e-03 -5.2587499768500022e-04 0.0000000000000000e+00  -1.5319917235901725e-03 -5.0347712266850817e-04 0.0000000000000000e+00  -5.2373711400372359e-04 -4.8914939509393687e-04 0.0000000000000000e+00  4.6102457557124652e-04 -4.8241482545590276e-04 0.0000000000000000e+00  1.4489800765461842e-03 -4.8312028358690816e-04 0.0000000000000000e+00  2.4668678387277168e-03 -4.9143440704395584e-04 0.0000000000000000e+00  3.5422106231668945e-03 -5.0784950389537366e-04 0.0000000000000000e+00  3.5796223645105287e-03 -2.1642782320384398e-04 0.0000000000000000e+00  3.5407110027012947e-03 7.4987456701503349e-05 0.0000000000000000e+00  2.5832477691658741e-03 4.9778839248599337e-05 0.0000000000000000e+00  1.6882920474272708e-03 3.0193462645791151e-05 0.0000000000000000e+00  8.3409364008615828e-04 1.4215828893685035e-05 0.0000000000000000e+00  0.0000000000000000e+00 0.0000000000000000e+00 0.0000000000000000e+00  0.0000000000000000e+00 0.0000000000000000e+00 0.0000000000000000e+00  -4.0204659736576144e-04 6.2499963984466604e-05 0.0000000000000000e+00  -8.1729082560341683e-04 1.2795926698997944e-04 0.0000000000000000e+00  -1.2592948129171897e-03 1.9942484578172107e-04 0.0000000000000000e+00  -1.7423161101553361e-03 2.8012146112276089e-04 0.0000000000000000e+00  -1.7669223912741470e-03 -1.9250819200737539e-04 0.0000000000000000e+00  -1.7413971445443517e-03 -6.6555763513464843e-04 0.0000000000000000e+00  -9.6502709484116045e-04 -6.3526607436689751e-04 0.0000000000000000e+00  -2.2449942172863589e-04 -6.1665874268359221e-04 0.0000000000000000e+00  5.0020152203123554e-04 -6.0923049878482474e-04 0.0000000000000000e+00  1.2286473305472684e-03 -6.1281715879889774e-04 0.0000000000000000e+00  1.9804650928472549e-03 -6.2759459468733332e-04 0.0000000000000000e+00  2.7758414208111600e-03 -6.5407959646629639e-04 0.0000000000000000e+00  2.8029799006732718e-03 -2.1439243824898947e-04 0.0000000000000000e+00  2.7728449625356952e-03 2.2520360387552187e-04 0.0000000000000000e+00  2.0254443752207524e-03 1.5905764565506372e-04 0.0000000000000000e+00  1.3248706188847821e-03 1.0143797424922765e-04 0.0000000000000000e+00  6.5488433248942152e-04 4.9356163139395452e-05 0.0000000000000000e+00  0.0000000000000000e+00 0.0000000000000000e+00 0.0000000000000000e+00  0.0000000000000000e+00 0.0000000000000000e+00 0.0000000000000000e+00  -1.4993884225310186e-04 8.0444179636866462e-05 0.0000000000000000e+00  -3.0637713292961592e-04 1.6434131264366901e-04 0.0000000000000000e+00  -4.7600618967458269e-04 2.5523411902361016e-04 0.0000000000000000e+00  -6.6585738394475777e-04 3.5684560093539249e-04 0.0000000000000000e+00  -6.7813327933502943e-04 -1.9900933193520121e-04 0.0000000000000000e+00  -6.6558961976626073e-04 -7.5518197377090295e-04 0.0000000000000000e+00  -2.5537208478684797e-04 -7.2039014561487943e-04 0.0000000000000000e+00  1.3773630570081835e-04 -6.9952333669646830e-04 0.0000000000000000e+00  5.2443037438839734e-04 -6.9205793424157000e-04 0.0000000000000000e+00  9.1519791746859109e-04 -6.9782250030111213e-04 0.0000000000000000e+00  1.3205846979228624e-03 -7.1699726386503522e-04 0.0000000000000000e+00  1.7514599531380608e-03 -7.5011464762693729e-04 0.0000000000000000e+00  1.7656095050928959e-03 -2.1083283092147379e-04 0.0000000000000000e+00  1.7471