<?xml version="1.0"?>
<VTKFile type="UnstructuredGrid"  version="0.1"  >
<UnstructuredGrid>
<Piece  NumberOfPoints="589" NumberOfCells="1080">
<Points>
<DataArray  type="Float64"  NumberOfComponents="3"  format="ascii">-9 0 0  -8 0 0  -7 0 0  -6 0 0  -5 0 0  -4 0 0  -3 0 0  -2 0 0  -1 0 0  0 0 0  1 0 0  2 0 0  3 0 0  4 0 0  5 0 0  6 0 0  7 0 0  8 0 0  9 0 0  -9 2 0  -7.999994700757476 2.000007266198844 0  -6.999988942035398 2.0000136678571 0  -5.999981634268346 2.000018505234814 0  -4.999970276795959 2.00002147785312 0  -3.999981787059746 2.000015950787045 0  -2.999993633241979 2.000010868109063 0  -1.999999527566406 2.000006161667837 0  -1.000000745278188 2.000002421037903 0  9.892729876767801e-07 2.0000007049547 0  1.000003039924799 2.000001630617493 0  2.000002886970986 2.000004889665407 0  2.999998885222188 2.000008820833683 0  3.999990648463759 2.000012771946265 0  4.999978978765463 2.000013548591294 0  5.999987676949224 2.000013413286516 0  6.999992801569638 2.000010514465832 0  7.999996588882512 2.000005736625881 0  9 2 0  -9.000000000009988 4 0  -7.999991239344077 4.000017990853133 0  -6.999984080241899 4.000033593059742 0  -5.999979467316493 4.000044469627716 0  -4.999977234346011 4.000048399649302 0  -3.999993660788788 4.000045673007964 0  -3.000004736881644 4.000031573598323 0  -2.000007822005178 4.000013305415488 0  -1.000003978558303 3.999998573190352 0  3.652316806861629e-06 3.999992429242134 0  1.000011522560849 3.999996458077409 0  2.000016208682175 4.000007944066779 0  3.000014318432184 4.000023425049279 0  4.000004853827801 4.000038551093877 0  4.999990256518039 4.000042154989623 0  5.999989648128004 4.000037880766881 0  6.999990952336906 4.000028545241817 0  7.99999468247121 4.000015308643261 0  9 4 0  -9 6 0  -7.999981371280269 6.000038271472761 0  -6.999969033696271 6.000072422082049 0  -5.999967780582526 6.000098221399229 0  -4.999978960309659 6.000111644566244 0  -4.000010554505297 6.00009060045437 0  -3.000024911300276 6.000047225555978 0  -2.000019173756085 6.000001891258287 0  -1.000005109833884 5.999976822673274 0  8.909889900796723e-06 5.999971600017606 0  1.000021318045576 5.999979119444991 0  2.000030686174826 6.000000240834091 0  3.000034267585445 6.000035932264478 0  4.000027299808351 6.000072547239721 0  5.000001637218134 6.000089623047632 0  5.999983968854592 6.000082594508722 0  6.999979399088464 6.000062181481256 0  7.999986426039901 6.000033169932829 0  9 6 0  -9 8 0  -7.999946334656683 8.000075041689978 0  -6.999909646905389 8.000144662970932 0  -5.999906361284132 8.000201484271168 0  -4.999950431637861 8.000233333091968 0  -4.000011605735096 8.00013721790206 0  -2.999999383723502 8.000024513455784 0  -1.999975660529992 7.999970250751264 0  -0.9999734151116426 7.999964916085324 0  1.28745822407477e-05 7.999963511143459 0  1.000002274575297 7.999958128455393 0  2.000005752266776 7.999979258681042 0  3.00003101274408 8.000015367964828 0  4.000039346242231 8.000106225790374 0  4.999981591320105 8.000208833112042 0  5.999925890602737 8.000180854756694 0  6.999921453939336 8.000130218216064 0  7.999951977383055 8.000067669523485 0  9 8 0  -9 10 0  -7.9998433556632 10.0001335192078 0  -6.999716617211911 10.00026814390623 0  -5.999655486611872 10.00040470252051 0  -4.999709577978198 10.00054340852412 0  -3.999807270538885 10.00023151544034 0  -2.999789773411914 9.999963596863257 0  -1.999828386872835 10.00001228264168 0  -0.9999138950600683 10.00002798020737 0  2.389789968858378e-05 10.00003179681848 0  0.9999627337733805 10.00003124993609 0  1.99988209868882 10.00003185466463 0  2.999810085502396 9.99993895098841 0  3.999817763376604 10.00017769632554 0  4.999712712299011 10.00049277045054 0  5.999662693516944 10.00036979524503 0  6.999723629461446 10.00024592983411 0  7.999847506984453 10.00012266893294 0  9 10 0  -9 12 0  -7.999620603870497 12.00018762995541 0  -6.999260912691918 12.00038398248362 0  -5.998943253383319 12.0005994939973 0  -4.998695158811788 12.00084875438295 0  -3.998745877122555 12.00027759252746 0  -2.998699451042881 11.99971156559843 0  -1.999085550738352 11.99978338511884 0  -0.9995188851057194 11.99982426325084 0  2.891289989277166e-05 11.9998358503825 0  0.9995701791971762 11.99981725256656 0  1.999114781602507 11.99976212105478 0  2.998681928277496 11.99965427675279 0  3.998725511148729 12.00022510826883 0  4.998696483736903 12.00080014303038 0  5.998955375933403 12.0005624036082 0  6.999273888805654 12.00035928911247 0  7.999628483638999 12.00017534101391 0  9 12 0  -9 14 0  -7.999318722344926 14.00020691314619 0  -6.998636584564579 14.00042329375651 0  -5.997951912711494 14.00065944839368 0  -4.997260613214602 14.00092732055816 0  -3.997254671485207 14.00025592985907 0  -2.997249584132095 13.99957578464325 0  -1.998154359275147 13.9996783677563 0  -0.9990486816103478 13.99973781150249 0  6.008157916938488e-05 13.99976073374023 0  0.9991646666645725 13.99974949545086 0  1.998258058532413 13.99970338884316 0  2.997334396860767 13.99961980624655 0  3.997324389256374 14.00024492658924 0  4.99732202949727 14.00086570549237 0  5.998008916751527 14.00061672637368 0  6.998679437095333 14.00039610977349 0  7.999341537103784 14.0001936536117 0  9 14 0  -9 16 0  -7.999019856036812 16.0001883684203 0  -6.998021692999574 16.00038359725406 0  -5.996985957793799 16.00059266470227 0  -4.995889758584629 16.00082263934969 0  -3.995852377077053 16.00024332093531 0  -2.9958874872544 15.99966692760928 0  -1.997266056230685 15.99974623669495 0  -0.9985913161084888 15.99979770883177 0  0.0001079341245133229 15.99982249392216 0  0.9988043568819115 15.99982143955109 0  1.997470505477804 15.99979478543465 0  2.996077124702104 15.99974229874472 0  3.996035541413708 16.00025914002858 0  4.9960711752729 16.00077629134068 0  5.997126818483712 16.00055773876796 0  6.998118001522694 16.00036038656748 0  7.999068746145831 16.00017680684421 0  9 16 0  -9 18 0  -7.99879261426404 18.00014239290347 0  -6.997556285684725 18.00028858890013 0  -5.996260569121809 18.00044232044942 0  -4.994871936351081 18.0006071294397 0  -3.994814674301287 18.00023873414362 0  -2.994868984897813 17.99987069437132 0  -1.996592347605027 17.99992572116182 0  -0.9982326493820649 17.99996462846899 0  0.0001670288640527907 17.99998788129667 0  0.9985656540890143 17.99999604401988 0  1.996922240567069 17.99998976049209 0  2.995193887730795 17.99996983528006 0  3.995135659319361 18.00027037318979 0  4.995190908844587 18.00056980227951 0  5.996501309835337 18.00041403589444 0  6.997717540933178 18.00026962600836 0  7.998873479325937 18.00013288650992 0  9 18 0  -9 20 0  -7.998680725474737 20.00008119737596 0  -6.997327607811743 20.00016344694557 0  -5.995905498786919 20.00024768736519 0  -4.994376620654974 20.00033461516613 0  -3.994310979790068 20.00023737094781 0  -2.994374620095723 20.00014037688824 0  -1.99625239447641 20.0001698770482 0  -0.9980346396150347 20.00019436411312 0  0.0002302712305562269 20.00021382566474 0  0.9984957022033142 20.00022862192586 0  1.996715070838042 20.00023947460038 0  2.994840160694632 20.00024749833461 0  3.99477582123236 20.00027646376498 0  4.994839341371702 20.00030449552156 0  5.996251203838209 20.0002249290004 0  6.997557472836799 20.00014819396848 0  7.998795482749148 20.00007354721961 0  8.999999999976341 20.0000000000032 0  -9 22 0  -7.998703825785301 22.00001578361798 0  -6.997374083705762 22.00003033654103 0  -5.995976152002366 22.00004230079579 0  -4.994473292435092 22.00005006073593 0  -3.994409048896703 22.00023917579496 0  -2.994472039194571 22.00042841163217 0  -1.99629606835274 22.0004341479835 0  -0.9980259747148365 22.00044426932491 0  0.0002914091885988683 22.00045849736248 0  0.998610670686946 22.00047703340947 0  1.996886463284235 22.00050054989556 0  2.995072154306508 22.00053019975521 0  3.995010958002204 22.00027875722983 0  4.995073133670201 22.00002650430098 0  5.996422244027107 22.00002449419579 0  6.997669709771507 22.00001840159969 0  7.998851114500683 22.00000979759514 0  9 22 0  -9 24 0  -7.998860811608744 23.99995529063077 0  -6.997692500402257 23.99990757629742 0  -5.996465159305354 23.99985372198808 0  -4.995147290393268 23.99979033617344 0  -3.995092125308969 24.00024304784078 0  -2.995146776313373 24.00069569915082 0  -1.996717679064475 24.00068081922194 0  -0.9982071418151029 24.00067769006382 0  0.0003450627905694572 24.00068587734586 0  0.998900239236865 24.00070545756154 0  1.997419765815132 24.000737015388 0  2.99586409223649 24.00078164778552 0  3.995813233921544 24.00027752558682 0  4.995866277832152 23.99977264882 0  5.996998673601404 23.99984038805722 0  6.998045485402852 23.99989865367285 0  7.999036503138159 23.9999508192424 0  9 24 0  -9 26 0  -7.999133863059167 25.99990682295356 0  -6.998246179999184 25.99980937658833 0  -5.997314899498908 25.99970326164533 0  -4.996316896359053 25.9995838248399 0  -3.996276506509447 26.0002480238453 0  -2.996316965002551 26.00091203886944 0  -1.997466427453238 26.00088035684637 0  -0.9985556014247523 26.00086571287878 0  0.0003868895050024653 26.00086755007407 0  0.9993331555308316 26.00088583012085 0  1.998255384609859 26.00092103273414 0  2.997125190397387 26.0009741566239 0  3.997089980651373 26.00027327012264 0  4.997128206976956 25.99957175202918 0  5.997916236052062 25.99969418743603 0  6.998643705735201 25.9998033166808 0  7.999331622621673 25.99990378958729 0  9 26 0  -9 28 0  -7.999492607379537 27.99987543944587 0  -6.998973347963229 27.99974585190271 0  -5.998430121135105 27.99960608189786 0  -4.997850267087386 27.99945072013836 0  -3.997828332999701 28.0002533807954 0  -2.997850571752358 28.00105577785505 0  -1.99845767179486 28.00101160807057 0  -0.9990313254362685 28.00098767293197 0  0.0004136826542828034 28.00098330789529 0  0.9998629588025281 28.00099836423197 0  1.999302189851856 28.00103320891585 0  2.998716834320014 28.00108872494558 0  3.998700746717867 28.00026671769518 0  4.99872048781497 27.99944423847184 0  5.999074771509314 27.99960123343314 0  6.999399337744661 27.9997426
[...]
<PointData  Vectors="f_42"> 
<DataArray  type="Float64"  Name="f_42"  NumberOfComponents="3" format="ascii">0.0000000000000000e+00 0.0000000000000000e+00 0.0000000000000000e+00  0.0000000000000000e+00 0.0000000000000000e+00 0.0000000000000000e+00  0.0000000000000000e+00 0.0000000000000000e+00 0.0000000000000000e+00  0.0000000000000000e+00 0.0000000000000000e+00 0.0000000000000000e+00  0.0000000000000000e+00 0.0000000000000000e+00 0.0000000000000000e+00  0.0000000000000000e+00 0.0000000000000000e+00 0.0000000000000000e+00  0.0000000000000000e+00 0.0000000000000000e+00 0.0000000000000000e+00  0.0000000000000000e+00 0.0000000000000000e+00 0.0000000000000000e+00  0.0000000000000000e+00 0.0000000000000000e+00 0.0000000000000000e+00  0.0000000000000000e+00 0.0000000000000000e+00 0.0000000000000000e+00  0.0000000000000000e+00 0.0000000000000000e+00 0.0000000000000000e+00  0.0000000000000000e+00 0.0000000000000000e+00 0.0000000000000000e+00  0.0000000000000000e+00 0.0000000000000000e+00 0.0000000000000000e+00  0.0000000000000000e+00 0.0000000000000000e+00 0.0000000000000000e+00  0.0000000000000000e+00 0.0000000000000000e+00 0.0000000000000000e+00  0.0000000000000000e+00 0.0000000000000000e+00 0.0000000000000000e+00  0.0000000000000000e+00 0.0000000000000000e+00 0.0000000000000000e+00  0.0000000000000000e+00 0.0000000000000000e+00 0.0000000000000000e+00  0.0000000000000000e+00 0.0000000000000000e+00 0.0000000000000000e+00  0.0000000000000000e+00 0.0000000000000000e+00 0.0000000000000000e+00  5.2992425172938501e-06 7.2661988447131658e-06 0.0000000000000000e+00  1.1057964609469284e-05 1.3667857100635186e-05 0.0000000000000000e+00  1.8365731654517714e-05 1.8505234815410493e-05 0.0000000000000000e+00  2.9723204030043423e-05 2.1477853117798727e-05 0.0000000000000000e+00  1.8212940255694147e-05 1.5950787045774475e-05 0.0000000000000000e+00  6.3667580171961638e-06 1.0868109064515831e-05 0.0000000000000000e+00  4.7243359512118762e-07 6.1616678363332249e-06 0.0000000000000000e+00  -7.4527818934508044e-07 2.4210379053710042e-06 0.0000000000000000e+00  9.8927298767678012e-07 7.0495469899135743e-07 0.0000000000000000e+00  3.0399248000229458e-06 1.6306174949317081e-06 0.0000000000000000e+00  2.8869709868507646e-06 4.8896654109924402e-06 0.0000000000000000e+00  -1.1147778103931174e-06 8.8208336806856330e-06 0.0000000000000000e+00  -9.3515362391131357e-06 1.2771946265927201e-05 0.0000000000000000e+00  -2.1021234539382654e-05 1.3548591294157048e-05 0.0000000000000000e+00  -1.2323050777202012e-05 1.3413286516147498e-05 0.0000000000000000e+00  -7.1984303676236061e-06 1.0514465830662023e-05 0.0000000000000000e+00  -3.4111174992912348e-06 5.7366258814861033e-06 0.0000000000000000e+00  0.0000000000000000e+00 0.0000000000000000e+00 0.0000000000000000e+00  -9.9873901165806172e-12 0.0000000000000000e+00 0.0000000000000000e+00  8.7606559296820880e-06 1.7990853131064663e-05 0.0000000000000000e+00  1.5919758106477701e-05 3.3593059740001874e-05 0.0000000000000000e+00  2.0532683505239545e-05 4.4469627715628693e-05 0.0000000000000000e+00  2.2765653983412668e-05 4.8399649303665720e-05 0.0000000000000000e+00  6.3392112118516843e-06 4.5673007965322305e-05 0.0000000000000000e+00  -4.7368816458919940e-06 3.1573598324893731e-05 0.0000000000000000e+00  -7.8220051784241523e-06 1.3305415484906317e-05 0.0000000000000000e+00  -3.9785583027579539e-06 -1.4268096490574324e-06 0.0000000000000000e+00  3.6523168068616294e-06 -7.5707578650673293e-06 0.0000000000000000e+00  1.1522560849625808e-05 -3.5419225833038762e-06 0.0000000000000000e+00  1.6208682174156066e-05 7.9440667780472681e-06 0.0000000000000000e+00  1.4318432185431498e-05 2.3425049277172668e-05 0.0000000000000000e+00  4.8538277987050400e-06 3.8551093878300435e-05 0.0000000000000000e+00  -9.7434819673730040e-06 4.2154989624663721e-05 0.0000000000000000e+00  -1.0351872003748827e-05 3.7880766883557752e-05 0.0000000000000000e+00  -9.0476630902117298e-06 2.8545241818164510e-05 0.0000000000000000e+00  -5.3175287812497820e-06 1.5308643260655581e-05 0.0000000000000000e+00  0.0000000000000000e+00 0.0000000000000000e+00 0.0000000000000000e+00  0.0000000000000000e+00 0.0000000000000000e+00 0.0000000000000000e+00  1.8628719715505277e-05 3.8271472755013908e-05 0.0000000000000000e+00  3.0966303732406577e-05 7.2422082051677754e-05 0.0000000000000000e+00  3.2219417464779879e-05 9.8221399233620345e-05 0.0000000000000000e+00  2.1039690342211208e-05 1.1164456624970665e-04 0.0000000000000000e+00  -1.0554505298063155e-05 9.0600454375668282e-05 0.0000000000000000e+00  -2.4911300275432014e-05 4.7225555979342395e-05 0.0000000000000000e+00  -1.9173756084367140e-05 1.8912582785771649e-06 0.0000000000000000e+00  -5.1098338843937757e-06 -2.3177326725077991e-05 0.0000000000000000e+00  8.9098899007967228e-06 -2.8399982398309281e-05 0.0000000000000000e+00  2.1318045575555989e-05 -2.0880555004767804e-05 0.0000000000000000e+00  3.0686174827962299e-05 2.4083408727075839e-07 0.0000000000000000e+00  3.4267585443924400e-05 3.5932264480615855e-05 0.0000000000000000e+00  2.7299808346209936e-05 7.2547239722896978e-05 0.0000000000000000e+00  1.6372181384591877e-06 8.9623047633335460e-05 0.0000000000000000e+00  -1.6031145415420187e-05 8.2594508723640811e-05 0.0000000000000000e+00  -2.0600911538446744e-05 6.2181481255611147e-05 0.0000000000000000e+00  -1.3573960098599705e-05 3.3169932827143838e-05 0.0000000000000000e+00  0.0000000000000000e+00 0.0000000000000000e+00 0.0000000000000000e+00  0.0000000000000000e+00 0.0000000000000000e+00 0.0000000000000000e+00  5.3665343304793653e-05 7.5041689979482825e-05 0.0000000000000000e+00  9.0353094609455558e-05 1.4466297093028525e-04 0.0000000000000000e+00  9.3638715868990145e-05 2.0148427116857274e-04 0.0000000000000000e+00  4.9568362138794243e-05 2.3333309197592586e-04 0.0000000000000000e+00  -1.1605735095266989e-05 1.3721790206538975e-04 0.0000000000000000e+00  6.1627649761739756e-07 2.4513455782782922e-05 0.0000000000000000e+00  2.4339470007740991e-05 -2.9749248734085042e-05 0.0000000000000000e+00  2.6584888356697423e-05 -3.5083914675956947e-05 0.0000000000000000e+00  1.2874582240747697e-05 -3.6488856545936657e-05 0.0000000000000000e+00  2.2745752984454434e-06 -4.1871544623351571e-05 0.0000000000000000e+00  5.7522667767165557e-06 -2.0741318971076704e-05 0.0000000000000000e+00  3.1012744078916802e-05 1.5367964835190255e-05 0.0000000000000000e+00  3.9346242232169387e-05 1.0622579037637414e-04 0.0000000000000000e+00  -1.8408679905485445e-05 2.0883311203583727e-04 0.0000000000000000e+00  -7.4109397265481448e-05 1.8085475669511823e-04 0.0000000000000000e+00  -7.8546060662695126e-05 1.3021821605552439e-04 0.0000000000000000e+00  -4.8022616951045463e-05 6.7669523485557588e-05 0.0000000000000000e+00  0.0000000000000000e+00 0.0000000000000000e+00 0.0000000000000000e+00  0.0000000000000000e+00 0.0000000000000000e+00 0.0000000000000000e+00  1.5664433680117381e-04 1.3351920781061468e-04 0.0000000000000000e+00  2.8338278809380581e-04 2.6814390624052472e-04 0.0000000000000000e+00  3.4451338812497965e-04 4.0470252051526690e-04 0.0000000000000000e+00  2.9042202179751261e-04 5.4340852412253010e-04 0.0000000000000000e+00  1.9272946111954990e-04 2.3151544033340497e-04 0.0000000000000000e+00  2.1022658808441899e-04 -3.6403136732098527e-05 0.0000000000000000e+00  1.7161312716132030e-04 1.2282641687800251e-05 0.0000000000000000e+00  8.6104939931345919e-05 2.7980207360882608e-05 0.0000000000000000e+00  2.3897899688583780e-05 3.1796818477935125e-05 0.0000000000000000e+00  -3.7266226617187450e-05 3.1249936095871254e-05 0.0000000000000000e+00  -1.1790131117708858e-04 3.1854664618886778e-05 0.0000000000000000e+00  -1.8991449760695598e-04 -6.1049011595927890e-05 0.0000000000000000e+00  -1.8223662339283319e-04 1.7769632553978553e-04 0.0000000000000000e+00  -2.8728770098434002e-04 4.9277045053039805e-04 0.0000000000000000e+00  -3.3730648304612957e-04 3.6979524503054096e-04 0.0000000000000000e+00  -2.7637053855684269e-04 2.4592983410808391e-04 0.0000000000000000e+00  -1.5249301555156984e-04 1.2266893294207894e-04 0.0000000000000000e+00  0.0000000000000000e+00 0.0000000000000000e+00 0.0000000000000000e+00  0.0000000000000000e+00 0.0000000000000000e+00 0.0000000000000000e+00  3.7939612950380161e-04 1.8762995541475312e-04 0.0000000000000000e+00  7.3908730808325100e-04 3.8398248362113023e-04 0.0000000000000000e+00  1.0567466166781041e-03 5.9949399731261226e-04 0.0000000000000000e+00  1.3048411882163526e-03 8.4875438295375981e-04 0.0000000000000000e+00  1.2541228774451102e-03 2.7759252746197558e-04 0.0000000000000000e+00  1.3005489571185310e-03 -2.8843440156911819e-04 0.0000000000000000e+00  9.1444926164926390e-04 -2.1661488115455843e-04 0.0000000000000000e+00  4.8111489428174023e-04 -1.7573674916867871e-04 0.0000000000000000e+00  2.8912899892771662e-05 -1.6414961749563358e-04 0.0000000000000000e+00  -4.2982080282545193e-04 -1.8274743344137774e-04 0.0000000000000000e+00  -8.8521839749434799e-04 -2.3787894522095716e-04 0.0000000000000000e+00  -1.3180717225040406e-03 -3.4572324723774296e-04 0.0000000000000000e+00  -1.2744888512675431e-03 2.2510826883761519e-04 0.0000000000000000e+00  -1.3035162631049942e-03 8.0014303038490305e-04 0.0000000000000000e+00  -1.0446240665978174e-03 5.6240360820491748e-04 0.0000000000000000e+00  -7.2611119434145600e-04 3.5928911246838920e-04 0.0000000000000000e+00  -3.7151636100626873e-04 1.7534101392052305e-04 0.0000000000000000e+00  0.0000000000000000e+00 0.0000000000000000e+00 0.0000000000000000e+00  0.0000000000000000e+00 0.0000000000000000e+00 0.0000000000000000e+00  6.8127765506091457e-04 2.0691314618451128e-04 0.0000000000000000e+00  1.3634154354183400e-03 4.2329375650455360e-04 0.0000000000000000e+00  2.0480872885040740e-03 6.5944839367872295e-04 0.0000000000000000e+00  2.7393867853941984e-03 9.2732055815209023e-04 0.0000000000000000e+00  2.7453285147915557e-03 2.5592985907505822e-04 0.0000000000000000e+00  2.7504158679070704e-03 -4.2421535675400836e-04 0.0000000000000000e+00  1.8456407248541586e-03 -3.2163224371677026e-04 0.0000000000000000e+00  9.5131838965395682e-04 -2.6218849752399775e-04 0.0000000000000000e+00  6.0081579169384878e-05 -2.3926625977772716e-04 0.0000000000000000e+00  -8.3533333542880003e-04 -2.5050454913978358e-04 0.0000000000000000e+00  -1.7419414675836347e-03 -2.9661115683883013e-04 0.0000000000000000e+00  -2.6656031392327320e-03 -3.8019375346675716e-04 0.0000000000000000e+00  -2.6756107436321204e-03 2.4492658923461273e-04 0.0000000000000000e+00  -2.6779705027252070e-03 8.6570549237371757e-04 0.0000000000000000e+00  -1.9910832484739158e-03 6.1672637366973150e-04 0.0000000000000000e+00  -1.3205629046654118e-03 3.9610977347835034e-04 0.0000000000000000e+00  -6.5846289621345323e-04 1.9365361170172927e-04 0.0000000000000000e+00  0.0000000000000000e+00 0.0000000000000000e+00 0.0000000000000000e+00  0.0000000000000000e+00 0.0000000000000000e+00 0.0000000000000000e+00  9.8014396320409043e-04 1.8836842029662125e-04 0.0000000000000000e+00  1.9783070004232841e-03 3.8359725406243754e-04 0.0000000000000000e+00  3.0140422062030947e-03 5.9266470227395732e-04 0.0000000000000000e+00  4.1102414153693706e-03 8.2263934968367395e-04 0.0000000000000000e+00  4.1476229229465153e-03 2.4332093533768447e-04 0.0000000000000000e+00  4.1125127456000292e-03 -3.3307239070905562e-04 0.0000000000000000e+00  2.7339437693138261e-03 -2.5376330506045628e-04 0.0000000000000000e+00  1.4086838915103761e-03 -2.0229116823242030e-04 0.0000000000000000e+00  1.0793412451332294e-04 -1.7750607784489778e-04 0.0000000000000000e+00  -1.1956431180898375e-03 -1.7856044891310279e-04 0.0000000000000000e+00  -2.5294945221976920e-03 -2.0521456535505767e-04 0.0000000000000000e+00  -3.9228752978911910e-03 -2.5770125528535394e-04 0.0000000000000000e+00  -3.9644585862931561e-03 2.5914002860250046e-04 0.0000000000000000e+00  -3.9288247270961004e-03 7.7629134066789008e-04 0.0000000000000000e+00  -2.8731815162845570e-03 5.5773876796736516e-04 0.0000000000000000e+00  -1.8819984773085015e-03 3.6038656748963989e-04 0.0000000000000000e+00  -9.3125385416616331e-04 1.7680684419703880e-04 0.0000000000000000e+00  0.0000000000000000e+00 0.0000000000000000e+00 0.0000000000000000e+00  0.0000000000000000e+00 0.0000000000000000e+00 0.0000000000000000e+00  1.2073857359725930e-03 1.4239290347266417e-04 0.0000000000000000e+00  2.4437143152755041e-03 2.8858890013198918e-04 0.0000000000000000e+00  3.7394308781926737e-03 4.4232044941989258e-04 0.0000000000000000e+00  5.1280636489178305e-03 6.0712943973394390e-04 0.0000000000000000e+00  5.1853256987130772e-03 2.3873414360349752e-04 0.0000000000000000e+00  5.1310151021860748e-03 -1.2930562866235904e-04 0.0000000000000000e+00  3.4076523949737908e-03 -7.4278838176016193e-05 0.0000000000000000e+00  1.7673506179323778e-03 -3.5371531011817001e-05 0.0000000000000000e+00  1.6702886405279066e-04 -1.2118703319471074e-05 0.0000000000000000e+00  -1.4343459109848065e-03 -3.9559801191706334e-06 0.0000000000000000e+00  -3.0777594329338925e-03 -1.0239507932480599e-05 0.0000000000000000e+00  -4.8061122692043198e-03 -3.0164719962085014e-05 0.0000000000000000e+00  -4.8643406806360302e-03 2.7037318978146839e-04 0.0000000000000000e+00  -4.8090911554113979e-03 5.6980227949287427e-04 0.0000000000000000e+00  -3.4986901646573074e-03 4.1403589443051066e-04 0.0000000000000000e+00  -2.2824590668163694e-03 2.6962600837060572e-04 0.0000000000000000e+00  -1.1265206740600222e-03 1.3288650993667912e-04 0.0000000000000000e+00  0.0000000000000000e+00 0.0000000000000000e+00 0.0000000000000000e+00  0.0000000000000000e+00 0.0000000000000000e+00 0.0000000000000000e+00  1.3192745252735866e-03 8.1197375959225356e-05 0.0000000000000000e+00  2.6723921882575515e-03 1.6344694557087871e-04 0.0000000000000000e+00  4.0945012130777399e-03 2.4768736520644897e-04 0.0000000000000000e+00  5.6233793450243376e-03 3.3461516613739585e-04 0.0000000000000000e+00  5.6890202099340792e-03 2.3737094782692349e-04 0.0000000000000000e+00  5.6253799042739645e-03 1.4037688823507772e-04 0.0000000000000000e+00  3.7476055235902000e-03 1.6987704820085032e-04 0.0000000000000000e+00  1.9653603849649009e-03 1.9436411311703859e-04 0.0000000000000000e+00  2.3027123055622685e-04 2.1382566476610472e-04 0.0000000000000000e+00  -1.5042977966851236e-03 2.2862192586198545e-04 0.0000000000000000e+00  -3.2849291619545763e-03 2.3947460037606141e-04 0.0000000000000000e+00  -5.1598393053659533e-03 2.4749833457531544e-04 0.0000000000000000e+00  -5.2241787676359161e-03 2.7646376495805541e-04 0.0000000000000000e+00  -5.1606586282987067e-03 3.0449552157106613e-04 0.0000000000000000e+00  -3.7487961617897955e-03 2.2492900036675089e-04 0.0000000000000000e+00  -2.4425271632038475e-03 1.4819396847301128e-04 0.0000000000000000e+00  -1.2045172508680863e-03 7.3547219581798537e-05 0.0000000000000000e+00  -2.3657231353341870e-11 3.2101305803280720e-12 0.0000000000000000e+00  0.0000000000000000e+00 0.0000000000000000e+00 0.0000000000000000e+00  1.2961742147009853e-03 1.5783617987201141e-05 0.0000000000000000e+00  2.6259162942327318e-03 3.0336541029167856e-05 0.0000000000000000e+00  4.0238479976296999e-03 4.2300795799422085e-05 0.0000000000000000e+00  5.5267075649115026e-03 5.0060735932182922e-05 0.0000000000000000e+00  5.5909511032951869e-03 2.3917579498717743e-04 0.0000000000000000e+00  5.5279608054277446e-03 4.2841163218268312e-04 0.0000000000000000e+00  3.7039316472645086e-03 4.3414798352705306e-04 0.0000000000000000e+00  1.9740252851626382e-03 4.4426932491855621e-04 0.0000000000000000e+00  2.9140918859886825e-04 4.5849736247171707e-04 0.0000000000000000e+00  -1.3893293130539093e-03 4.7703340944457056e-04 0.0000000000000000e+00  -3.1135367157665034e-03 5.0054989554229492e-04 0.0000000000000000e+00  -4.9278456934922386e-03 5.3019975519352585e-04 0.0000000000000000e+00  -4.9890419977894045e-03 2.7875722984165756e-04 0.0000000000000000e+00  -4.9268663297997103e-03 2.6504300991087440e-05 0.0000000000000000e+00  -3.5777559728976424e-03 2.4494195798858192e-05 0.0000000000000000e+00  -2.3302902284966709e-03 1.8401599696176915e-05 0.0000000000000000e+00  -1.1488854993195760e-03 9.7975951583600437e-06 0.0000000000000000e+00  0.0000000000000000e+00 0.0000000000000000e+00 0.0000000000000000e+00  0.0000000000000000e+00 0.0000000000000000e+00 0.0000000000000000e+00  1.1391883912706890e-03 -4.4709369235052440e-05 0.0000000000000000e+00  2.3074995977430961e-03 -9.2423702565291770e-05 0.0000000000000000e+00  3.5348406946385477e-03 -1.4627801190717743e-04 0.0000000000000000e+00  4.8527096067394948e-03 -2.0966382657638686e-04 0.0000000000000000e+00  4.9078746910304451e-03 2.4304784079200357e-04 0.0000000000000000e+00  4.8532236866269864e-03 6.9569915080741520e-04 0.0000000000000000e+00  3.2823209355255941e-03 6.8081922192364302e-04 0.0000000000000000e+00  1.7928581848966299e-03 6.7769006380808457e-04 0.0000000000000000e+00  3.4506279056945716e-04 6.8587734586478993e-04 0.0000000000000000e+00  -1.0997607631369399e-03 7.0545756152699454e-04 0.0000000000000000e+00  -2.5802341848639404e-03 7.3701538803156753e-04 0.0000000000000000e+00  -4.1359077635110186e-03 7.8164778552787528e-04 0.0000000000000000e+00  -4.1867660784665976e-03 2.7752558683276363e-04 0.0000000000000000e+00  -4.1337221678483960e-03 -2.2735118001712559e-04 0.0000000000000000e+00  -3.0013263985944564e-03 -1.5961194276227156e-04 0.0000000000000000e+00  -1.9545145971539080e-03 -1.0134632715858602e-04 0.0000000000000000e+00  -9.6349686183507238e-04 -4.9180757601730604e-05 0.0000000000000000e+00  0.0000000000000000e+00 0.0000000000000000e+00 0.0000000000000000e+00  0.0000000000000000e+00 0.0000000000000000e+00 0.0000000000000000e+00  8.6613694082368154e-04 -9.3177046429019760e-05 0.0000000000000000e+00  1.7538200008148915e-03 -1.9062341166705242e-04 0.0000000000000000e+00  2.6851005010945532e-03 -2.9673835466076116e-04 0.0000000000000000e+00  3.6831036409529614e-03 -4.1617516010351353e-04 0.0000000000000000e+00  3.7234934905498035e-03 2.4802384530172824e-04 0.0000000000000000e+00  3.6830349974506450e-03 9.1203886944806866e-04 0.0000000000000000e+00  2.5335725467594949e-03 8.8035684637139040e-04 0.0000000000000000e+00  1.4443985752485582e-03 8.6571287880205926e-04 0.0000000000000000e+00  3.8688950500246532e-04 8.6755007408108862e-04 0.0000000000000000e+00  -6.6684446916786026e-04 8.8583012086182770e-04 0.0000000000000000e+00  -1.7446153901398923e-03 9.2103273410985517e-04 0.0000000000000000e+00  -2.8748096026146711e-03 9.7415662391484557e-04 0.0000000000000000e+00  -2.9100193486228951e-03 2.7327012265281335e-04 0.0000000000000000e+00  -2.8717930230484729e-03 -4.2824797079559461e-04 0.0000000000000000e+00  -2.0837639479397881e-03 -3.0581256399032339e-04 0.0000000000000000e+00  -1.3562942648003545e-03 -1.9668331918541431e-04 0.0000000000000000e+00  -6.6837737832336824e-04 -9.6210412687049819e-05 0.0000000000000000e+00  0.0000000000000000e+00 0.0000000000000000e+00 0.0000000000000000e+00  0.0000000000000000e+00 0.0000000000000000e+00 0.0000000000000000e+00  5.0739262046363746e-04 -1.2456055412013602e-04 0.0000000000000000e+00  1.0266520367695233e-03 -2.5414809728880461e-04 0.0000000000000000e+00  1.5698788648921096e-03 -3.9391810213979309e-04 0.0000000000000000e+00  2.1497329126146402e-03 -5.4927986165202670e-04 0.0000000000000000e+00  2.1716670002939332e-03 2.5338079538863071e-04 0.0000000000000000e+00  2.1494282476434427e-03 1.0557778550241569e-03 0.0000000000000000e+00  1.5423282051384261e-03 1.0116080705324980e-03 0.0000000000000000e+00  9.6867456373126944e-04 9.8767293196265135e-04 0.0000000000000000e+00  4.1368265428280335e-04 9.8330789526789703e-04 0.0000000000000000e+00  -1.3704119747223902e-04 9.9836423195422521e-04 0.0000000000000000e+00  -6.9781014814240621e-04 1.0332089158476903e-03 0.0000000000000000e+00  -1.2831656799820004e-03 1.0887249455680426e-03 0.0000000000000000e+00  -1.2992532821345679e-03 2.6671769518069581e-04 0.0000000000000000e+00  -1.2795121850325962e-03 -5.5576152816480735e-04 0.0000000000000000e+00  -9.2522849068698047e-04 -3.9876656684765486e-04 0.00000