<?xml version="1.0"?>
<VTKFile type="UnstructuredGrid"  version="0.1"  >
<UnstructuredGrid>
<Piece  NumberOfPoints="589" NumberOfCells="1080">
<Points>
<DataArray  type="Float64"  NumberOfComponents="3"  format="ascii">-9 0 0  -8 0 0  -7 0 0  -6 0 0  -5 0 0  -4 0 0  -3 0 0  -2 0 0  -1 0 0  0 0 0  1 0 0  2 0 0  3 0 0  4 0 0  5 0 0  6 0 0  7 0 0  8 0 0  9 0 0  -9 2 0  -8.000001914818172 1.999996701976796 0  -7.000004086661333 1.999993817413434 0  -6.000007074125846 1.99999168319537 0  -5.000012114343749 1.999990448334687 0  -4.000006962524046 1.99999278665807 0  -3.00000158108305 1.999995056093145 0  -1.999998935965589 1.999997201888915 0  -0.9999984642622247 1.999998876794377 0  6.808680388831748e-07 1.999999539251357 0  0.9999998284194525 1.999998838579872 0  2.000000305057485 1.999996864013839 0  3.000003053235412 1.999994370990373 0  4.000008489459869 1.999991449001473 0  5.000016515505977 1.999989449817639 0  6.000010339255973 1.999990372614211 0  7.00000626887376 1.999992765087929 0  8.000003012746673 1.999996135204546 0  9 2 0  -9.000000000004983 4 0  -8.00000280152846 3.999991750178924 0  -7.000004910846753 3.999984633492351 0  -6.000005937227718 3.999979768986832 0  -5.000006004031006 3.999978241864997 0  -3.999998294492472 3.999979062092693 0  -2.999993037340805 3.99998547184438 0  -1.999991557557478 3.999993934147519 0  -0.9999933628312185 4.000000700717885 0  3.046631349708697e-06 4.000003240648144 0  0.9999994434308352 4.000000553020548 0  1.999997632190618 3.999993830924635 0  2.999999443994398 3.999984663279838 0  4.000005451684355 3.999975056016786 0  5.000014238725762 3.9999705025017 0  6.00001225498262 3.999974866601329 0  7.000009280673249 3.999981619720371 0  8.000005051911439 3.99999029180936 0  9 4 0  -9 6 0  -8.000006456997234 5.999982266174057 0  -7.000010066788482 5.999966441156152 0  -6.000008638636237 5.999954505547437 0  -5.0000015049572 5.999948404938713 0  -3.999986292178679 5.999957658585511 0  -2.999979159909947 5.999977702144444 0  -1.999981366179602 5.999998882850608 0  -0.999987715381119 6.000010828004967 0  5.628100044370779e-06 6.000013086182446 0  0.9999995001597723 6.000008636124027 0  1.999994870692549 5.999996653692553 0  2.9999934649786 5.99997648278465 0  3.999997846605831 5.999955235500551 0  5.000012105059392 5.999943794910117 0  6.000018132990756 5.999949804862092 0  7.000017310159291 5.999962798898494 0  8.000010383482623 5.999980304423424 0  9 6 0  -9 8 0  -8.000021500584946 7.99996514847015 0  -7.000035373933857 7.99993269285959 0  -6.000034161762947 7.999905903810949 0  -5.000011306790833 7.999890198461314 0  -3.999982337058616 7.99993404649514 0  -2.999986173819789 7.999986008191005 0  -1.999995775724034 8.000012133413378 0  -0.9999961256476948 8.00001613038178 0  1.044543466133852e-05 8.000017440777262 0  1.000015114818504 8.000020004108269 0  2.00001272871136 8.000007608187964 0  2.999999434557838 7.999986542836387 0  3.999995225245695 7.99993630005839 0  5.000026075957433 7.999879911729614 0  6.000051412782568 7.999896809419902 0  7.000049753439752 7.999925934212576 0  8.000029540842743 7.99996155846404 0  9 8 0  -9 10 0  -8.000067045683547 9.99993845317541 0  -7.000121015880129 9.999876287854713 0  -6.000146247798758 9.999812982897925 0  -5.000120835691942 9.999748239167873 0  -4.000075674642961 9.999887813639837 0  -3.000080331452986 10.00000865796042 0  -2.000060641482479 9.999991181646411 0  -1.000020782331248 9.999985612655717 0  9.513857315746601e-06 9.999984251618061 0  1.000040097943867 9.999984032380873 0  2.000081348684745 9.999982018771222 0  3.000116967493037 10.0000276666202 0  4.000112325411746 9.999898180155094 0  5.000169238995807 9.999728289801732 0  6.000192658328898 9.999794920616477 0  7.000156397489515 9.999863080265456 0  8.000086002936698 9.999931548908386 0  9 10 0  -9 12 0  -8.000164858971623 11.99991424450063 0  -7.000321555635854 11.99982446259483 0  -6.000460805130658 11.99972585372078 0  -5.000571038283013 11.99961175399175 0  -4.00054796871308 11.99986283797518 0  -3.000565647206784 12.00011119605102 0  -2.000366839005901 12.00008506314341 0  -1.000149788554449 12.00007283759354 0  7.320642878255787e-05 12.00007398163837 0  1.000296369499778 12.00008932683558 0  2.000514259547443 12.00012242353778 0  3.000715748298617 12.00018184393166 0  4.000691310168342 11.9998711484242 0  5.000709892293602 11.99955776721 0  6.000572528812427 11.99968695209321 0  7.0003995278094 11.99979901232033 0  8.000204868358633 11.99990162328825 0  9 12 0  -9 14 0  -8.000295253041008 13.99990615539368 0  -7.000591774338459 13.99980796932128 0  -6.000891239888641 13.99970072314472 0  -5.001196419887002 13.99957896176956 0  -4.001199247814197 13.99986764913517 0  -3.001197999061052 14.00015982366123 0  -2.00074613617999 14.00012334153378 0  -1.00030261980913 14.00010660762142 0  0.0001362648325480962 14.00010693078767 0  1.000573867065641 14.00012364671775 0  2.001013010621101 14.00015758002838 0  3.001455506663813 14.00021048932422 0  4.001458241381438 13.99985819208285 0  5.001463314025409 13.99950768948496 0  6.001094736578363 13.99964755267059 0  7.000729166020287 13.99977278401955 0  8.000364489950995 13.99988865835284 0  9 14 0  -9 16 0  -8.000420482168083 15.99991544111871 0  -7.000850063871994 15.99982773574874 0  -6.001298570745876 15.99973368258829 0  -5.001777346354609 15.99963002378995 0  -4.001794629846221 15.99986884653239 0  -3.001775303611799 16.00010604541363 0  -2.001092297017587 16.00008270739749 0  -1.000437022391257 16.00007221521013 0  0.0002044795055075186 16.00007437009063 0  1.000845350273128 16.00008915922258 0  2.001498647197184 16.00011689636318 0  3.002178172465939 16.00015815530469 0  4.002197521411968 15.99984829951109 0  5.002182529853444 15.9995379259549 0  6.00160455428094 15.99966673063572 0  7.001055003982727 15.99978401897621 0  8.000523232355185 15.99989384311049 0  9 16 0  -9 18 0  -8.000509216695685 17.9999373149021 0  -7.001032480626822 17.99987290616519 0  -6.001584545709798 17.99980508019505 0  -5.002181590441487 17.99973221553237 0  -4.00220792360855 17.99986715074398 0  -3.002179928519431 18.00000159958615 0  -2.001327857780566 17.99999075813153 0  -1.000516476879681 17.99998730618179 0  0.0002752341041273008 17.99999134430318 0  1.001067301888031 18.0000029513471 0  2.001879726442255 18.00002219565477 0  3.002733447859703 18.00004909664524 0  4.002762317552991 17.99984048046978 0  5.002736335849382 17.99963209216004 0  6.002000251343712 17.99973200737279 0  7.001309460176616 17.99982513171714 0  8.000647661810321 17.99991370516871 0  9 18 0  -9 20 0  -8.000541673990726 19.99996608173256 0  -7.001099515089061 19.99993174814844 0  -6.001690305823212 19.99989663488686 0  -5.002332064074136 19.9998604811119 0  -4.002362100688307 19.99986460704955 0  -3.002330160900198 19.99986824785011 0  -2.001401036310567 19.99986930187317 0  -1.000517421903963 19.99987249037892 0  0.0003445723827270873 19.9998780969072 0  1.001208019056412 19.99988624784829 0  2.00209601598592 19.99989691904409 0  3.003032537038225 19.99990992186538 0  4.003065708491955 19.99983587488209 0  5.003034195113918 19.99976193183718 0  6.002214339297775 19.99982445813901 0  7.001447672776099 19.99988445372519 0  8.000715398304335 19.9999426808039 0  8.999999999970528 19.99999999999719 0  -9 22 0  -8.000509379409918 21.99999650866093 0  -7.00103457126264 21.99999370957812 0  -6.001591892232205 21.99999235387373 0  -5.002198667099812 21.99999331156467 0  -4.002227850413323 21.99986101362462 0  -3.002196814366889 21.99972823884902 0  -2.001292565136682 21.99973932438287 0  -1.000432064097285 21.99974802157746 0  0.0004081140631870008 21.99975469179741 0  1.001250740307483 21.99975948277453 0  2.002118630943001 21.99976233333429 0  3.003035349903314 21.99976296996696 0  4.0030679985634 21.9998336278297 0  5.003035713647781 21.99990428166514 0  6.002215252279076 21.99992703037576 0  7.001448062804497 21.99995084716907 0  8.000715505377103 21.99997528292154 0  9 22 0  -9 24 0  -8.000413745261515 24.00002416772158 0  -7.000840921471471 24.00004989943418 0  -6.001295346631688 24.00007882172868 0  -5.001791600575307 24.00011268606729 0  -4.001816296707412 23.99985661419986 0  -3.001789992230114 23.99960011576269 0  -2.001009488902105 23.99961888333246 0  -1.000265590185131 23.99963164553439 0  0.0004618805367665862 23.99963878925147 0  1.001192615838413 23.99964046480446 0  2.001946363546 23.99963658760973 0  3.002743467243925 23.99962683692666 0  4.00277167239262 23.99983339083292 0  5.002742608721795 24.00003988286046 0  6.002002681647393 24.00002532538259 0  7.001309687207609 24.00001476074268 0  8.000647295529236 24.00000675573596 0  9 24 0  -9 26 0  -8.000264280484117 26.00004557398735 0  -7.000538070209918 26.0000933327452 0  -6.000831142618038 26.00014552537331 0  -5.001153782019856 26.00020453076128 0  -4.001171228954387 25.99985169196955 0  -3.001152579377976 25.99949848485862 0  -2.000580374688024 25.9995224260694 0  -1.000033575405238 25.99953770652732 0  0.0005026080598630742 25.99954472300189 0  1.001042654161511 25.99954362153643 0  2.001601101463121 25.99953429907838 0  3.002192920691853 25.99951640250343 0  4.0022136693007 25.99983477744391 0  5.002190922484408 26.00015302910526 0  6.001601997679348 26.00010764509306 0  7.001048669418132 26.00006843363409 0  8.000518593867026 26.00003323055581 0  9 26 0  -9 28 0  -8.000076651272327 28.00005824460634 0  -7.000157857736428 28.00011903470594 0  -6.000248311277002 28.00018498183519 0  -5.000352953600799 28.00025883015152 0  -4.000361300465473 27.99984658853236 0  -3.000352272543224 27.99943405052804 0  -2.000050015258364 27.99946057083024 0  -0.9997592685230966 27.99947678390254 0  0.0005279020127729137 27.99948308820924 0  1.000819295288848 27.99947962274421 0  2.001122772284736 27.99946626753684 0  3.001446454533687 27.99944264326885 0  4.00145768326303 27.99983743392615 0  5.001443461273634 28.00023205223389 0  6.001058545917312 28.00016527268237 0  7.000694403718557 28.00010607300536 0  8.00034
[...]
<PointData  Vectors="f_42"> 
<DataArray  type="Float64"  Name="f_42"  NumberOfComponents="3" format="ascii">0.0000000000000000e+00 0.0000000000000000e+00 0.0000000000000000e+00  0.0000000000000000e+00 0.0000000000000000e+00 0.0000000000000000e+00  0.0000000000000000e+00 0.0000000000000000e+00 0.0000000000000000e+00  0.0000000000000000e+00 0.0000000000000000e+00 0.0000000000000000e+00  0.0000000000000000e+00 0.0000000000000000e+00 0.0000000000000000e+00  0.0000000000000000e+00 0.0000000000000000e+00 0.0000000000000000e+00  0.0000000000000000e+00 0.0000000000000000e+00 0.0000000000000000e+00  0.0000000000000000e+00 0.0000000000000000e+00 0.0000000000000000e+00  0.0000000000000000e+00 0.0000000000000000e+00 0.0000000000000000e+00  0.0000000000000000e+00 0.0000000000000000e+00 0.0000000000000000e+00  0.0000000000000000e+00 0.0000000000000000e+00 0.0000000000000000e+00  0.0000000000000000e+00 0.0000000000000000e+00 0.0000000000000000e+00  0.0000000000000000e+00 0.0000000000000000e+00 0.0000000000000000e+00  0.0000000000000000e+00 0.0000000000000000e+00 0.0000000000000000e+00  0.0000000000000000e+00 0.0000000000000000e+00 0.0000000000000000e+00  0.0000000000000000e+00 0.0000000000000000e+00 0.0000000000000000e+00  0.0000000000000000e+00 0.0000000000000000e+00 0.0000000000000000e+00  0.0000000000000000e+00 0.0000000000000000e+00 0.0000000000000000e+00  0.0000000000000000e+00 0.0000000000000000e+00 0.0000000000000000e+00  0.0000000000000000e+00 0.0000000000000000e+00 0.0000000000000000e+00  -1.9148181796001354e-06 -3.2980232022683368e-06 0.0000000000000000e+00  -4.0866613281475291e-06 -6.1825865660689007e-06 0.0000000000000000e+00  -7.0741258456682626e-06 -8.3168046300287498e-06 0.0000000000000000e+00  -1.2114343759141469e-05 -9.5516653149246692e-06 0.0000000000000000e+00  -6.9625240442444006e-06 -7.2133419289768616e-06 0.0000000000000000e+00  -1.5810830531032284e-06 -4.9439068544575425e-06 0.0000000000000000e+00  1.0640344123357008e-06 -2.7981110853609210e-06 0.0000000000000000e+00  1.5357377742170532e-06 -1.1232056217175469e-06 0.0000000000000000e+00  6.8086803888317480e-07 -4.6074864524231617e-07 0.0000000000000000e+00  -1.7158054685797754e-07 -1.1614201267566352e-06 0.0000000000000000e+00  3.0505748421383276e-07 -3.1359861581020976e-06 0.0000000000000000e+00  3.0532354137540612e-06 -5.6290096286948385e-06 0.0000000000000000e+00  8.4894598729092483e-06 -8.5509985277664947e-06 0.0000000000000000e+00  1.6515505975982531e-05 -1.0550182361280235e-05 0.0000000000000000e+00  1.0339255970817930e-05 -9.6273857890244000e-06 0.0000000000000000e+00  6.2688737558301330e-06 -7.2349120719712726e-06 0.0000000000000000e+00  3.0127466641444710e-06 -3.8647954549238221e-06 0.0000000000000000e+00  0.0000000000000000e+00 0.0000000000000000e+00 0.0000000000000000e+00  -4.9820587634006413e-12 0.0000000000000000e+00 0.0000000000000000e+00  -2.8015284533204118e-06 -8.2498210780096890e-06 0.0000000000000000e+00  -4.9108467489181535e-06 -1.5366507648681374e-05 0.0000000000000000e+00  -5.9372277192023612e-06 -2.0231013169655633e-05 0.0000000000000000e+00  -6.0040310116283752e-06 -2.1758135000808293e-05 0.0000000000000000e+00  1.7055075256786836e-06 -2.0937907306433702e-05 0.0000000000000000e+00  6.9626591943046475e-06 -1.4528155618075603e-05 0.0000000000000000e+00  8.4424425215467990e-06 -6.0658524822441369e-06 0.0000000000000000e+00  6.6371687814799965e-06 7.0071788512655106e-07 0.0000000000000000e+00  3.0466313497086971e-06 3.2406481444360158e-06 0.0000000000000000e+00  -5.5656916447161953e-07 5.5302055434349956e-07 0.0000000000000000e+00  -2.3678093816036610e-06 -6.1690753658837995e-06 0.0000000000000000e+00  -5.5600559952400606e-07 -1.5336720161910941e-05 0.0000000000000000e+00  5.4516843522315117e-06 -2.4943983211645724e-05 0.0000000000000000e+00  1.4238725757645796e-05 -2.9497498297314010e-05 0.0000000000000000e+00  1.2254982613367799e-05 -2.5133398667527133e-05 0.0000000000000000e+00  9.2806732511884339e-06 -1.8380279629210548e-05 0.0000000000000000e+00  5.0519114463161822e-06 -9.7081906421109395e-06 0.0000000000000000e+00  0.0000000000000000e+00 0.0000000000000000e+00 0.0000000000000000e+00  0.0000000000000000e+00 0.0000000000000000e+00 0.0000000000000000e+00  -6.4569972474518311e-06 -1.7733825949811330e-05 0.0000000000000000e+00  -1.0066788478458661e-05 -3.3558843846277406e-05 0.0000000000000000e+00  -8.6386362435163861e-06 -4.5494452558739861e-05 0.0000000000000000e+00  -1.5049571988620250e-06 -5.1595061281292415e-05 0.0000000000000000e+00  1.3707821321405609e-05 -4.2341414483663828e-05 0.0000000000000000e+00  2.0840090053669566e-05 -2.2297855551251633e-05 0.0000000000000000e+00  1.8633820398262243e-05 -1.1171494006421009e-06 0.0000000000000000e+00  1.2284618880983099e-05 1.0828004969883383e-05 0.0000000000000000e+00  5.6281000443707795e-06 1.3086182441774151e-05 0.0000000000000000e+00  -4.9984022815207247e-07 8.6361240302467936e-06 0.0000000000000000e+00  -5.1293074502509410e-06 -3.3463074516017357e-06 0.0000000000000000e+00  -6.5350214012108216e-06 -2.3517215344192289e-05 0.0000000000000000e+00  -2.1533941699281600e-06 -4.4764499449395714e-05 0.0000000000000000e+00  1.2105059395165693e-05 -5.6205089882134106e-05 0.0000000000000000e+00  1.8132990748426667e-05 -5.0195137905444520e-05 0.0000000000000000e+00  1.7310159288165664e-05 -3.7201101507166129e-05 0.0000000000000000e+00  1.0383482621731281e-05 -1.9695576576122282e-05 0.0000000000000000e+00  0.0000000000000000e+00 0.0000000000000000e+00 0.0000000000000000e+00  0.0000000000000000e+00 0.0000000000000000e+00 0.0000000000000000e+00  -2.1500584958600480e-05 -3.4851529847219107e-05 0.0000000000000000e+00  -3.5373933859405578e-05 -6.7307140412649021e-05 0.0000000000000000e+00  -3.4161762946122187e-05 -9.4096189057199924e-05 0.0000000000000000e+00  -1.1306790832908409e-05 -1.0980153867411284e-04 0.0000000000000000e+00  1.7662941385210268e-05 -6.5953504854842065e-05 0.0000000000000000e+00  1.3826180209977376e-05 -1.3991808998074804e-05 0.0000000000000000e+00  4.2242759654738356e-06 1.2133413379216160e-05 0.0000000000000000e+00  3.8743523047967602e-06 1.6130381782690907e-05 0.0000000000000000e+00  1.0445434661338517e-05 1.7440777256276040e-05 0.0000000000000000e+00  1.5114818504999500e-05 2.0004108255278538e-05 0.0000000000000000e+00  1.2728711359952632e-05 7.6081879527836052e-06 0.0000000000000000e+00  -5.6544216313610599e-07 -1.3457163607277303e-05 0.0000000000000000e+00  -4.7747543055972575e-06 -6.3699941609830324e-05 0.0000000000000000e+00  2.6075957426898688e-05 -1.2008827039456913e-04 0.0000000000000000e+00  5.1412782569765359e-05 -1.0319058009783299e-04 0.0000000000000000e+00  4.9753439753075923e-05 -7.4065787433425596e-05 0.0000000000000000e+00  2.9540842734918862e-05 -3.8441535960741852e-05 0.0000000000000000e+00  0.0000000000000000e+00 0.0000000000000000e+00 0.0000000000000000e+00  0.0000000000000000e+00 0.0000000000000000e+00 0.0000000000000000e+00  -6.7045683545342499e-05 -6.1546824584122618e-05 0.0000000000000000e+00  -1.2101588012638745e-04 -1.2371214528438015e-04 0.0000000000000000e+00  -1.4624779876022838e-04 -1.8701710207039339e-04 0.0000000000000000e+00  -1.2083569194709038e-04 -2.5176083212625708e-04 0.0000000000000000e+00  -7.5674642957105465e-05 -1.1218636016128019e-04 0.0000000000000000e+00  -8.0331452987439606e-05 8.6579604204712577e-06 0.0000000000000000e+00  -6.0641482483087531e-05 -8.8183535798528855e-06 0.0000000000000000e+00  -2.0782331248414154e-05 -1.4387344290629216e-05 0.0000000000000000e+00  9.5138573157466010e-06 -1.5748381946152944e-05 0.0000000000000000e+00  4.0097943868685249e-05 -1.5967619126869813e-05 0.0000000000000000e+00  8.1348684746986063e-05 -1.7981228782495535e-05 0.0000000000000000e+00  1.1696749303441789e-04 2.7666620200661124e-05 0.0000000000000000e+00  1.1232541174753790e-04 -1.0181984490682169e-04 0.0000000000000000e+00  1.6923899581352221e-04 -2.7171019827209784e-04 0.0000000000000000e+00  1.9265832890564885e-04 -2.0507938352140809e-04 0.0000000000000000e+00  1.5639748951381939e-04 -1.3691973454597783e-04 0.0000000000000000e+00  8.6002936691047894e-05 -6.8451091611040286e-05 0.0000000000000000e+00  0.0000000000000000e+00 0.0000000000000000e+00 0.0000000000000000e+00  0.0000000000000000e+00 0.0000000000000000e+00 0.0000000000000000e+00  -1.6485897162177895e-04 -8.5755499371601993e-05 0.0000000000000000e+00  -3.2155563585470359e-04 -1.7553740516952244e-04 0.0000000000000000e+00  -4.6080513066037266e-04 -2.7414627920100646e-04 0.0000000000000000e+00  -5.7103828300871407e-04 -3.8824600824780014e-04 0.0000000000000000e+00  -5.4796871308137468e-04 -1.3716202481304810e-04 0.0000000000000000e+00  -5.6564720678466834e-04 1.1119605101979648e-04 0.0000000000000000e+00  -3.6683900590066590e-04 8.5063143421391593e-05 0.0000000000000000e+00  -1.4978855444727247e-04 7.2837593536965827e-05 0.0000000000000000e+00  7.3206428782557871e-05 7.3981638377241269e-05 0.0000000000000000e+00  2.9636949977735762e-04 8.9326835576005243e-05 0.0000000000000000e+00  5.1425954744091973e-04 1.2242353778025010e-04 0.0000000000000000e+00  7.1574829861690377e-04 1.8184393164029629e-04 0.0000000000000000e+00  6.9131016834465472e-04 -1.2885157578523034e-04 0.0000000000000000e+00  7.0989229359553650e-04 -4.4223278999575423e-04 0.0000000000000000e+00  5.7252881242712817e-04 -3.1304790678436564e-04 0.0000000000000000e+00  3.9952780940624868e-04 -2.0098767967537652e-04 0.0000000000000000e+00  2.0486835862395595e-04 -9.8376711753068587e-05 0.0000000000000000e+00  0.0000000000000000e+00 0.0000000000000000e+00 0.0000000000000000e+00  0.0000000000000000e+00 0.0000000000000000e+00 0.0000000000000000e+00  -2.9525304102079813e-04 -9.3844606317492895e-05 0.0000000000000000e+00  -5.9177433846273092e-04 -1.9203067872366458e-04 0.0000000000000000e+00  -8.9123988864412177e-04 -2.9927685528214856e-04 0.0000000000000000e+00  -1.1964198870063941e-03 -4.2103823044032458e-04 0.0000000000000000e+00  -1.1992478141992465e-03 -1.3235086481810135e-04 0.0000000000000000e+00  -1.1979990610505563e-03 1.5982366122901253e-04 0.0000000000000000e+00  -7.4613617998888675e-04 1.2334153377029908e-04 0.0000000000000000e+00  -3.0261980912872031e-04 1.0660762141060240e-04 0.0000000000000000e+00  1.3626483254809620e-04 1.0693078766515442e-04 0.0000000000000000e+00  5.7386706563878319e-04 1.2364671775704736e-04 0.0000000000000000e+00  1.0130106211049109e-03 1.5758002838324244e-04 0.0000000000000000e+00  1.4555066638131629e-03 2.1048932420486912e-04 0.0000000000000000e+00  1.4582413814298446e-03 -1.4180791716146359e-04 0.0000000000000000e+00  1.4633140254133974e-03 -4.9231051504019076e-04 0.0000000000000000e+00  1.0947365783610622e-03 -3.5244732942067665e-04 0.0000000000000000e+00  7.2916602028523232e-04 -2.2721598046261448e-04 0.0000000000000000e+00  3.6448995099191571e-04 -1.1134164716816856e-04 0.0000000000000000e+00  0.0000000000000000e+00 0.0000000000000000e+00 0.0000000000000000e+00  0.0000000000000000e+00 0.0000000000000000e+00 0.0000000000000000e+00  -4.2048216807083537e-04 -8.4558881294829905e-05 0.0000000000000000e+00  -8.5006387199487959e-04 -1.7226425125913998e-04 0.0000000000000000e+00  -1.2985707458738152e-03 -2.6631741169897034e-04 0.0000000000000000e+00  -1.7773463546091400e-03 -3.6997621005618756e-04 0.0000000000000000e+00  -1.7946298462197105e-03 -1.3115346760215788e-04 0.0000000000000000e+00  -1.7753036117990305e-03 1.0604541363320735e-04 0.0000000000000000e+00  -1.0922970175882797e-03 8.2707397491624555e-05 0.0000000000000000e+00  -4.3702239125769466e-04 7.2215210123190886e-05 0.0000000000000000e+00  2.0447950550751861e-04 7.4370090629874598e-05 0.0000000000000000e+00  8.4535027312751337e-04 8.9159222571864616e-05 0.0000000000000000e+00  1.4986471971806922e-03 1.1689636317502791e-04 0.0000000000000000e+00  2.1781724659431663e-03 1.5815530468242425e-04 0.0000000000000000e+00  2.1975214119655372e-03 -1.5170048888865368e-04 0.0000000000000000e+00  2.1825298534489642e-03 -4.6207404510832407e-04 0.0000000000000000e+00  1.6045542809453698e-03 -3.3326936427508684e-04 0.0000000000000000e+00  1.0550039827241183e-03 -2.1598102378998579e-04 0.0000000000000000e+00  5.2323235518966012e-04 -1.0615688951186392e-04 0.0000000000000000e+00  0.0000000000000000e+00 0.0000000000000000e+00 0.0000000000000000e+00  0.0000000000000000e+00 0.0000000000000000e+00 0.0000000000000000e+00  -5.0921669566969074e-04 -6.2685097880624166e-05 0.0000000000000000e+00  -1.0324806268226573e-03 -1.2709383479971010e-04 0.0000000000000000e+00  -1.5845457097965969e-03 -1.9491980494703738e-04 0.0000000000000000e+00  -2.1815904414897087e-03 -2.6778446761021815e-04 0.0000000000000000e+00  -2.2079236085483984e-03 -1.3284925603889347e-04 0.0000000000000000e+00  -2.1799285194308037e-03 1.5995861627479152e-06 0.0000000000000000e+00  -1.3278577805653706e-03 -9.2418684684203240e-06 0.0000000000000000e+00  -5.1647687968326718e-04 -1.2693818213621218e-05 0.0000000000000000e+00  2.7523410412730076e-04 -8.6556968155587038e-06 0.0000000000000000e+00  1.0673018880315121e-03 2.9513470975317199e-06 0.0000000000000000e+00  1.8797264422527426e-03 2.2195654764518900e-05 0.0000000000000000e+00  2.7334478597047084e-03 4.9096645226433120e-05 0.0000000000000000e+00  2.7623175529917416e-03 -1.5951953022692888e-04 0.0000000000000000e+00  2.7363358493827429e-03 -3.6790783998430325e-04 0.0000000000000000e+00  2.0002513437175221e-03 -2.6799262722222418e-04 0.0000000000000000e+00  1.3094601766222411e-03 -1.7486828285755648e-04 0.0000000000000000e+00  6.4766181032115903e-04 -8.6294831278910356e-05 0.0000000000000000e+00  0.0000000000000000e+00 0.0000000000000000e+00 0.0000000000000000e+00  0.0000000000000000e+00 0.0000000000000000e+00 0.0000000000000000e+00  -5.4167399071689232e-04 -3.3918267440588999e-05 0.0000000000000000e+00  -1.0995150890597174e-03 -6.8251851558608060e-05 0.0000000000000000e+00  -1.6903058232168157e-03 -1.0336511311370687e-04 0.0000000000000000e+00  -2.3320640741380893e-03 -1.3951888809573981e-04 0.0000000000000000e+00  -2.3621006883065123e-03 -1.3539295044724556e-04 0.0000000000000000e+00  -2.3301609002019425e-03 -1.3175214988888034e-04 0.0000000000000000e+00  -1.4010363105668058e-03 -1.3069812683512037e-04 0.0000000000000000e+00  -5.1742190396391740e-04 -1.2750962108875523e-04 0.0000000000000000e+00  3.4457238272708735e-04 -1.2190309277193464e-04 0.0000000000000000e+00  1.2080190564125654e-03 -1.1375215170076656e-04 0.0000000000000000e+00  2.0960159859248553e-03 -1.0308095591434765e-04 0.0000000000000000e+00  3.0325370382274747e-03 -9.0078134651136799e-05 0.0000000000000000e+00  3.0657084919579435e-03 -1.6412511792407281e-04 0.0000000000000000e+00  3.0341951139166621e-03 -2.3806816280330873e-04 0.0000000000000000e+00  2.2143392977740013e-03 -1.7554186100506437e-04 0.0000000000000000e+00  1.4476727760976921e-03 -1.1554627481228710e-04 0.0000000000000000e+00  7.1539830431843971e-04 -5.7319196122790098e-05 0.0000000000000000e+00  -2.9472349167210750e-11 -2.8037347818342374e-12 0.0000000000000000e+00  0.0000000000000000e+00 0.0000000000000000e+00 0.0000000000000000e+00  -5.0937940991316235e-04 -3.4913390723823420e-06 0.0000000000000000e+00  -1.0345712626429165e-03 -6.2904218829624525e-06 0.0000000000000000e+00  -1.5918922322059363e-03 -7.6461262757308735e-06 0.0000000000000000e+00  -2.1986670998095713e-03 -6.6884353244840378e-06 0.0000000000000000e+00  -2.2278504133261524e-03 -1.3898637536083377e-04 0.0000000000000000e+00  -2.1968143668909651e-03 -2.7176115098066170e-04 0.0000000000000000e+00  -1.2925651366777187e-03 -2.6067561709425632e-04 0.0000000000000000e+00  -4.3206409728575445e-04 -2.5197842253027236e-04 0.0000000000000000e+00  4.0811406318700077e-04 -2.4530820260850004e-04 0.0000000000000000e+00  1.2507403074832762e-03 -2.4051722548841986e-04 0.0000000000000000e+00  2.1186309430006817e-03 -2.3766666573826777e-04 0.0000000000000000e+00  3.0353499033134125e-03 -2.3703003305768742e-04 0.0000000000000000e+00  3.0679985634030397e-03 -1.6637217028193040e-04 0.0000000000000000e+00  3.0357136477796370e-03 -9.5718334860867639e-05 0.0000000000000000e+00  2.2152522790735789e-03 -7.2969624240324944e-05 0.0000000000000000e+00  1.4480628044910709e-03 -4.9152830907389551e-05 0.0000000000000000e+00  7.1550537710168914e-04 -2.4717078450537388e-05 0.0000000000000000e+00  0.0000000000000000e+00 0.0000000000000000e+00 0.0000000000000000e+00  0.0000000000000000e+00 0.0000000000000000e+00 0.0000000000000000e+00  -4.1374526150367584e-04 2.4167721568162084e-05 0.0000000000000000e+00  -8.4092147147316965e-04 4.9899434207433915e-05 0.0000000000000000e+00  -1.2953466316926988e-03 7.8821728682468772e-05 0.0000000000000000e+00  -1.7916005752969648e-03 1.1268606727748192e-04 0.0000000000000000e+00  -1.8162967074132779e-03 -1.4338580012354584e-04 0.0000000000000000e+00  -1.7899922301137480e-03 -3.9988423732393609e-04 0.0000000000000000e+00  -1.0094889021026710e-03 -3.8111666754688639e-04 0.0000000000000000e+00  -2.6559018513146426e-04 -3.6835446561017616e-04 0.0000000000000000e+00  4.6188053676658622e-04 -3.6121074853354520e-04 0.0000000000000000e+00  1.1926158384107737e-03 -3.5953519554091464e-04 0.0000000000000000e+00  1.9463635460044003e-03 -3.6341239025361704e-04 0.0000000000000000e+00  2.7434672439229342e-03 -3.7316307334032668e-04 0.0000000000000000e+00  2.7716723926094092e-03 -1.6660916708172749e-04 0.0000000000000000e+00  2.7426087217946810e-03 3.9882860456445816e-05 0.0000000000000000e+00  2.0026816473946445e-03 2.5325382615111525e-05 0.0000000000000000e+00  1.3096872076034348e-03 1.4760742665035165e-05 0.0000000000000000e+00  6.4729552923802134e-04 6.7557359584803674e-06 0.0000000000000000e+00  0.0000000000000000e+00 0.0000000000000000e+00 0.0000000000000000e+00  0.0000000000000000e+00 0.0000000000000000e+00 0.0000000000000000e+00  -2.6428048412428166e-04 4.5573987351677975e-05 0.0000000000000000e+00  -5.3807020992038324e-04 9.3332745198360586e-05 0.0000000000000000e+00  -8.3114261803471172e-04 1.4552537330949475e-04 0.0000000000000000e+00  -1.1537820198513047e-03 2.0453076128283540e-04 0.0000000000000000e+00  -1.1712289543907622e-03 -1.4830803044631858e-04 0.0000000000000000e+00  -1.1525793779737950e-03 -5.0151514136793430e-04 0.0000000000000000e+00  -5.8037468802521898e-04 -4.7757393059206772e-04 0.0000000000000000e+00  -3.3575405237065173e-05 -4.6229347265686229e-04 0.0000000000000000e+00  5.0260805986307422e-04 -4.5527699810438827e-04 0.0000000000000000e+00  1.0426541615116431e-03 -4.5637846355811910e-04 0.0000000000000000e+00  1.6011014631218466e-03 -4.6570092165351153e-04 0.0000000000000000e+00  2.1929206918514625e-03 -4.8359749656800947e-04 0.0000000000000000e+00  2.2136693007020394e-03 -1.6522255608278548e-04 0.0000000000000000e+00  2.1909224844024445e-03 1.5302910526493371e-04 0.0000000000000000e+00  1.6019976793470599e-03 1.0764509303617089e-04 0.0000000000000000e+00  1.0486694181298464e-03 6.8433634101336109e-05 0.0000000000000000e+00  5.1859386703279986e-04 3.3230555830272053e-05 0.0000000000000000e+00  0.0000000000000000e+00 0.0000000000000000e+00 0.0000000000000000e+00  0.0000000000000000e+00 0.0000000000000000e+00 0.0000000000000000e+00  -7.6651272324018081e-05 5.8244606343747150e-05 0.0000000000000000e+00  -1.5785773643001611e-04 1.1903470594149235e-04 0.0000000000000000e+00  -2.4831127700452888e-04 1.8498183518770987e-04 0.0000000000000000e+00  -3.5295360079770540e-04 2.5883015150467327e-04 0.0000000000000000e+00  -3.6130046547707789e-04 -1.5341146765691355e-04 0.0000000000000000e+00  -3.5227254322274510e-04 -5.6594947197834112e-04 0.0000000000000000e+00  -5.0015258364951545e-05 -5.3942916979812252e-04 0.0000000000000000e+00  2.4073147690315997e-04 -5.2321609746108278e-04 0.0000000000000000e+00  5.2790201277291371e-04 -5.1691179079013563e-04 0.0000000000000000e+00  8.1929528884802693e-04 -5.2037725579281806e-04 0.0000000000000000e+00  1.1227722847378700e-03 -5.3373246314952934e-04 0.0000000000000000e+00  1.4464545336908175e-03 -5.5735673114626946e-04 0.0000000000000000e+00  1.4576832630271734e-03 -1.6256607385260730e-04 0.0000000000000000e+00  1.4434