<?xml version="1.0"?>
<VTKFile type="UnstructuredGrid"  version="0.1"  >
<UnstructuredGrid>
<Piece  NumberOfPoints="589" NumberOfCells="1080">
<Points>
<DataArray  type="Float64"  NumberOfComponents="3"  format="ascii">-9 0 0  -8 0 0  -7 0 0  -6 0 0  -5 0 0  -4 0 0  -3 0 0  -2 0 0  -1 0 0  0 0 0  1 0 0  2 0 0  3 0 0  4 0 0  5 0 0  6 0 0  7 0 0  8 0 0  9 0 0  -9 2 0  -8.000007125454189 1.999989404061519 0  -7.000014940709153 1.999980105205926 0  -6.000025068198762 1.999973155668919 0  -5.000041217373408 1.999969014152076 0  -4.000024536477643 1.999976885269568 0  -3.000007373406553 1.999984297321813 0  -1.999998968157503 1.999991231877287 0  -0.9999974900526694 1.999996714086652 0  -3.418925299435461e-07 1.999999130336858 0  0.9999964804391301 1.999997500807188 0  1.999996859442877 1.999992231575846 0  3.000003398833528 1.999985777600381 0  4.000016891925933 1.999978908460875 0  5.000036394274757 1.999976227263061 0  6.000021913283538 1.99997716790951 0  7.000013015859457 1.999982368539308 0  8.000006212218825 1.999990450399654 0  9 2 0  -9 4 0  -8.000011491551639 3.999973620429227 0  -7.000020632504884 3.99995081361404 0  -6.000026049582079 3.999935079516081 0  -5.00002802759046 3.999929756132307 0  -4.00000381094612 3.999933457198921 0  -2.999987528188623 3.999954267319561 0  -1.999983186358254 3.999981334197663 0  -0.9999892066785691 4.0000031093021 0  -8.723257795031834e-07 4.000011920877929 0  0.9999872015384864 4.000005163958612 0  1.999980297702493 3.999986811796785 0  2.999983696369593 3.999961975491253 0  3.999998998005421 3.999937064966845 0  5.000022345628291 3.999928937136255 0  6.000021492160847 3.999937296295518 0  7.000017656422617 3.99995321282652 0  8.000010058490803 3.999975030535503 0  9 4 0  -9 6 0  -8.000025259240054 5.999943548886773 0  -7.000041219742366 5.999893234028816 0  -6.000040787258661 5.999855363268362 0  -5.000021929918866 5.999835981599361 0  -3.999974783303072 5.999866841690917 0  -2.999953300483923 5.999931188545655 0  -1.999961680542859 5.999998611442615 0  -0.9999826711738213 6.00003608647736 0  -3.889010227560409e-06 6.000043650774946 0  0.999977074433071 6.000031599113982 0  1.999962608986632 5.999998209300858 0  2.999957240676252 5.999941799186178 0  3.999968390861459 5.999883362268769 0  5.000008450324655 5.999854572064589 0  6.000033000078139 5.999867197833994 0  7.000037344928465 5.99990045542857 0  8.000023745780009 5.999947006524147 0  9 6 0  -9 8 0  -8.000076212720847 7.999888946650136 0  -7.000127373479668 7.999785893455851 0  -6.000129221218965 7.99970170584002 0  -5.000061007144698 7.999654291223904 0  -3.999969851852084 7.999796495972463 0  -2.99998668182908 7.999963535492453 0  -2.000020902545309 8.000044873236531 0  -1.000023803369142 8.000054067143783 0  -3.407859198317662e-06 8.000056729614993 0  1.000011909819149 8.000064886769994 0  2.000005794789615 8.000031123858109 0  2.999966453324335 7.999973618786676 0  3.999953251273684 7.999831023875575 0  5.000042521699943 7.999670106503264 0  6.000125316672583 7.999714593153472 0  7.000128796906805 7.999794540129179 0  8.000078008876585 7.999893225149066 0  9 8 0  -9 10 0  -8.000227301712208 9.999802402064814 0  -7.000410701525746 9.999603180760049 0  -6.000497828742248 9.999401105166523 0  -5.000415744009144 9.999195876430024 0  -4.000271215270952 9.999655056058888 0  -3.000294953540244 10.00004981517042 0  -2.000236332182741 9.999981587217704 0  -1.000109312511047 9.999959694333365 0  -1.58136713967205e-05 9.999954355725272 0  1.000076868946117 9.99995479270366 0  2.000200122562958 9.99995242345639 0  3.000308800712243 10.00009389102727 0  4.000295433153184 9.999721300819051 0  5.000458943989295 9.99922962261032 0  6.000534738195968 9.999420265865417 0  7.000437224884079 9.999613738938901 0  8.000241091938738 9.999807126434735 0  9 10 0  -9 12 0  -8.000553662980918 11.99972247546087 0  -7.001078572580798 11.999432095286 0  -6.00154222699704 11.99911348264741 0  -5.001904309807335 11.99874519073482 0  -4.001830432229623 11.99958262416045 0  -3.001897413554468 12.00041172419012 0  -2.001304548833126 12.00031106113495 0  -1.000644901421217 12.00025636021201 0  4.009649715728512e-05 12.00024529633344 0  1.000732045881292 12.00027956223344 0  2.001415487493177 12.00036920177936 0  3.002059757715415 12.00053939369092 0  4.001989025559405 11.99964550408067 0  5.002035964616631 11.99874424124198 0  6.001636633020998 11.99911489213095 0  7.001139752835488 11.9994334476207 0  8.000583779469816 11.9997231872497 0  9 12 0  -9 14 0  -8.000994345336398 13.99969411225853 0  -7.001990355915122 13.99937418345406 0  -6.002991015571074 13.99902493324675 0  -5.004002701812246 13.99862865099614 0  -4.004013162814786 13.99960781204998 0  -3.004019378901074 14.00059937245238 0  -2.002641202434777 14.00045694611939 0  -1.001282467116406 14.0003787072603 0  6.835936083435685e-05 14.00035512826365 0  1.001422262505074 14.00038309512698 0  2.002789457308226 14.00046414188071 0  3.004178024684547 14.00060268532584 0  4.004189046179829 13.99961050256611 0  5.004194943503847 13.99862450446234 0  6.003127060968402 13.99901844331395 0  7.002077681187973 13.99936874449644 0  8.001037085360798 13.99969113333268 0  9 14 0  -9 16 0  -8.001427421617953 15.99972200712956 0  -7.002881986455243 15.99943375572823 0  -6.004393192694785 15.99912481041886 0  -5.005995346746257 15.99878454899414 0  -4.006052326118594 15.99962055724854 0  -3.005998754521106 16.00045214165046 0  -2.00390253583259 16.00034683918768 0  -1.001889470746786 16.00028302523768 0  8.435258437484025e-05 16.00025932764522 0  1.002060443941561 16.00027485022126 0  2.004080330715065 16.00032963579716 0  3.006188201142576 16.00042445584895 0  4.006248598852487 15.9995847735997 0  5.006195795101291 15.99874445274597 0  6.004540670519152 15.99909691440715 0  7.002978773039533 15.99941594920163 0  8.001475335152508 15.99971330372714 0  9 16 0  -9 18 0  -8.001750924451377 17.99979096069222 0  -7.003545268115068 17.99957620214435 0  -6.005428708864636 17.99935011078563 0  -5.007451420411122 17.99910730867641 0  -4.007537456272096 17.99962362559963 0  -3.007454773526599 18.00013928046471 0  -2.004834378709374 18.00007139964538 0  -1.002340973586983 18.00002752279966 0  9.121380203057987e-05 18.00000728380215 0  1.002524767873465 18.00001017632393 0  2.005022184184215 18.00003558800516 0  3.007648927299423 18.00008267659464 0  4.007736567467834 17.99956555762684 0  5.0076531009816 17.99904996968189 0  6.005578167104938 17.9993093292843 0  7.003644014604223 17.99955002027475 0  8.001800025234319 17.99977815993267 0  9 18 0  -9 20 0  -8.001899826950019 19.99988277565463 0  -7.003850334652886 19.99976400362137 0  -6.005904138008372 19.99964230759835 0  -5.00811771983971 19.99951664831708 0  -4.008215881453271 19.99962382570756 0  -3.008119161775765 19.9997302714828 0  -2.005261788819297 19.99970040186927 0  -1.0025492818612 19.99967794150997 0  9.253604427037524e-05 19.99966318472081 0  1.002735156288782 19.99965588081843 0  2.005450034135712 19.99965525322196 0  3.008311247127079 19.9996599525391 0  4.008409855893189 19.99955600452678 0  5.008312551445929 19.99945310473694 0  6.006049243748723 19.99959648468509 0  7.003946576742125 19.99973432765043 0  8.001947797485339 19.99986819912722 0  8.999999999993566 19.9999999999934 0  -9 22 0  -8.001845153101725 21.9999807635626 0  -7.003740402810101 21.99996349667186 0  -6.005737414679625 21.99995036038216 0  -5.007890979957669 21.9999439025974 0  -4.00798708118474 21.99962007537758 0  -3.007891919928768 21.99929543190061 0  -2.005113305798687 21.99929991910404 0  -1.002476516964234 21.99929771218396 0  9.064256927059639e-05 21.99928944019491 0  1.002658182464506 21.9992750331206 0  2.005296089276855 21.99925373513557 0  3.008076491763003 21.9992240917839 0  4.008171250029331 21.99955294962958 0  5.008074309520968 21.9998824036685 0  6.005874592030079 21.99990577676737 0  7.003831686547056 21.99993450341802 0  8.001890739261004 21.99996648559343 0  9 22 0  -9 24 0  -8.001589216624044 24.00007087370709 0  -7.003221567784449 24.00014646601877 0  -6.004941393181243 24.0002316914134 0  -5.006795383131967 24.00033186905417 0  -4.006878255322581 23.99961264413953 0  -3.006796871141125 23.99889268403579 0  -2.004400985607133 23.99892607421262 0  -1.002126833690747 23.99894161220367 0  8.730966317108303e-05 23.99894010350611 0  1.002301511947477 23.99892160632564 0  2.004575823581937 23.99888543505149 0  3.006971919537364 23.9988301551985 0  4.0070510611726 23.9995547053592 0  5.006966123724464 24.00027959555916 0  6.005069654217767 24.00019363352535 0  7.003307156041052 24.0001216405326 0  8.001632028319115 24.00005862526018 0  9 24 0  -9 26 0  -8.001159747046252 26.00014212716392 0  -7.002350856663473 26.00029091226783 0  -6.003605543209196 26.00045321117682 0  -5.004957568373693 26.00063629264135 0  -4.005018720635925 25.99960206857841 0  -3.004960313104052 25.99856727483919 0  -2.003205068155081 25.99862332410759 0  -1.001538627865251 25.99865338576789 0  8.388333223009695e-05 25.99865840318556 0  1.001706214211631 25.99863854930133 0  2.003372096868784 25.99859322743579 0  3.005126357488587 25.99852106942263 0  4.005181202603547 25.9995597038927 0  5.00511710034088 26.00059848582386 0  6.003725810292728 26.00042561428909 0  7.002431312564322 26.00027287417826 0  8.001200050565755 26.00013321590093 0  9 26 0  -9 28 0  -8.000603670341551 28.00018676926514 0  -7.001223727843188 28.00038131496283 0  -6.001877041501958 28.00059161391404 0  -5.002581226194345 28.00082604996723 0  -4.002614863994213 27.9995893528092 0  -3.00258548086286 27.99835235754951 0  -2.001657198225041 27.99842419533949 0  -1.000776184479268 27.99846500202705 0  8.132415172123247e-05 27.99847584685903 0  1.000938493660606 27.99845701395433 0  2.001818470579154 27.99840800248242 0  3.002744959387603 27.99832752552195 0  4.002769984435234 27.99956683156691 0  5.002732876459221 28.00080619969756 0  6.001991680993417 28.00057709283314 0  7.001300568607961 28.00037180822021 0  8.00064220920
[...]
<PointData  Vectors="f_42"> 
<DataArray  type="Float64"  Name="f_42"  NumberOfComponents="3" format="ascii">0.0000000000000000e+00 0.0000000000000000e+00 0.0000000000000000e+00  0.0000000000000000e+00 0.0000000000000000e+00 0.0000000000000000e+00  0.0000000000000000e+00 0.0000000000000000e+00 0.0000000000000000e+00  0.0000000000000000e+00 0.0000000000000000e+00 0.0000000000000000e+00  0.0000000000000000e+00 0.0000000000000000e+00 0.0000000000000000e+00  0.0000000000000000e+00 0.0000000000000000e+00 0.0000000000000000e+00  0.0000000000000000e+00 0.0000000000000000e+00 0.0000000000000000e+00  0.0000000000000000e+00 0.0000000000000000e+00 0.0000000000000000e+00  0.0000000000000000e+00 0.0000000000000000e+00 0.0000000000000000e+00  0.0000000000000000e+00 0.0000000000000000e+00 0.0000000000000000e+00  0.0000000000000000e+00 0.0000000000000000e+00 0.0000000000000000e+00  0.0000000000000000e+00 0.0000000000000000e+00 0.0000000000000000e+00  0.0000000000000000e+00 0.0000000000000000e+00 0.0000000000000000e+00  0.0000000000000000e+00 0.0000000000000000e+00 0.0000000000000000e+00  0.0000000000000000e+00 0.0000000000000000e+00 0.0000000000000000e+00  0.0000000000000000e+00 0.0000000000000000e+00 0.0000000000000000e+00  0.0000000000000000e+00 0.0000000000000000e+00 0.0000000000000000e+00  0.0000000000000000e+00 0.0000000000000000e+00 0.0000000000000000e+00  0.0000000000000000e+00 0.0000000000000000e+00 0.0000000000000000e+00  0.0000000000000000e+00 0.0000000000000000e+00 0.0000000000000000e+00  -7.1254541968385873e-06 -1.0595938480868761e-05 0.0000000000000000e+00  -1.4940709152059208e-05 -1.9894794073668141e-05 0.0000000000000000e+00  -2.5068198761514654e-05 -2.6844331080637131e-05 0.0000000000000000e+00  -4.1217373410221128e-05 -3.0985847925573636e-05 0.0000000000000000e+00  -2.4536477644784375e-05 -2.3114730431718368e-05 0.0000000000000000e+00  -7.3734065561382435e-06 -1.5702678186789977e-05 0.0000000000000000e+00  1.0318424979365481e-06 -8.7681227136612046e-06 0.0000000000000000e+00  2.5099473302624505e-06 -3.2859133482884464e-06 0.0000000000000000e+00  -3.4189252994354607e-07 -8.6966314240482556e-07 0.0000000000000000e+00  -3.5195608692355653e-06 -2.4991928114635155e-06 0.0000000000000000e+00  -3.1405571251649409e-06 -7.7684241523207921e-06 0.0000000000000000e+00  3.3988335290613162e-06 -1.4222399620316121e-05 0.0000000000000000e+00  1.6891925933610345e-05 -2.1091539124836034e-05 0.0000000000000000e+00  3.6394274755407788e-05 -2.3772736938460425e-05 0.0000000000000000e+00  2.1913283535081435e-05 -2.2832090491281814e-05 0.0000000000000000e+00  1.3015859457893621e-05 -1.7631460692202575e-05 0.0000000000000000e+00  6.2122188203272593e-06 -9.5496003463982954e-06 0.0000000000000000e+00  0.0000000000000000e+00 0.0000000000000000e+00 0.0000000000000000e+00  0.0000000000000000e+00 0.0000000000000000e+00 0.0000000000000000e+00  -1.1491551636858355e-05 -2.6379570775043148e-05 0.0000000000000000e+00  -2.0632504876348402e-05 -4.9186385961549728e-05 0.0000000000000000e+00  -2.6049582077200449e-05 -6.4920483921166250e-05 0.0000000000000000e+00  -2.8027590464719570e-05 -7.0243867692283921e-05 0.0000000000000000e+00  -3.8109461201431950e-06 -6.6542801077720896e-05 0.0000000000000000e+00  1.2471811376457095e-05 -4.5732680436679402e-05 0.0000000000000000e+00  1.6813641745290765e-05 -1.8665802338115165e-05 0.0000000000000000e+00  1.0793321430737023e-05 3.1093021015383372e-06 0.0000000000000000e+00  -8.7232577950318343e-07 1.1920877928615264e-05 0.0000000000000000e+00  -1.2798461513774647e-05 5.1639586157896392e-06 0.0000000000000000e+00  -1.9702297506945222e-05 -1.3188203215393641e-05 0.0000000000000000e+00  -1.6303630402662983e-05 -3.8024508747595545e-05 0.0000000000000000e+00  -1.0019945816057357e-06 -6.2935033155035459e-05 0.0000000000000000e+00  2.2345628283153297e-05 -7.1062863743594380e-05 0.0000000000000000e+00  2.1492160842235615e-05 -6.2703704480165581e-05 0.0000000000000000e+00  1.7656422615696987e-05 -4.6787173478908367e-05 0.0000000000000000e+00  1.0058490816237113e-05 -2.4969464497291221e-05 0.0000000000000000e+00  0.0000000000000000e+00 0.0000000000000000e+00 0.0000000000000000e+00  0.0000000000000000e+00 0.0000000000000000e+00 0.0000000000000000e+00  -2.5259240056860041e-05 -5.6451113229026285e-05 0.0000000000000000e+00  -4.1219742365570627e-05 -1.0676597118326216e-04 0.0000000000000000e+00  -4.0787258664692565e-05 -1.4463673163793713e-04 0.0000000000000000e+00  -2.1929918863387071e-05 -1.6401840063593750e-04 0.0000000000000000e+00  2.5216696929078291e-05 -1.3315830907883536e-04 0.0000000000000000e+00  4.6699516076897506e-05 -6.8811454340978443e-05 0.0000000000000000e+00  3.8319457141305479e-05 -1.3885573861204224e-06 0.0000000000000000e+00  1.7328826179106635e-05 3.6086477360581476e-05 0.0000000000000000e+00  -3.8890102275604092e-06 4.3650774944393036e-05 0.0000000000000000e+00  -2.2925566929139384e-05 3.1599113984311885e-05 0.0000000000000000e+00  -3.7391013366921775e-05 -1.7906991459945620e-06 0.0000000000000000e+00  -4.2759323749446456e-05 -5.8200813816492086e-05 0.0000000000000000e+00  -3.1609138543009823e-05 -1.1663773123033975e-04 0.0000000000000000e+00  8.4503246545858369e-06 -1.4542793541414274e-04 0.0000000000000000e+00  3.3000078132550250e-05 -1.3280216600280474e-04 0.0000000000000000e+00  3.7344928463727573e-05 -9.9544571429985179e-05 0.0000000000000000e+00  2.3745780009609061e-05 -5.2993475852569004e-05 0.0000000000000000e+00  0.0000000000000000e+00 0.0000000000000000e+00 0.0000000000000000e+00  0.0000000000000000e+00 0.0000000000000000e+00 0.0000000000000000e+00  -7.6212720855392083e-05 -1.1105334986207077e-04 0.0000000000000000e+00  -1.2737347966793256e-04 -2.1410654415130890e-04 0.0000000000000000e+00  -1.2922121896966068e-04 -2.9829415998557167e-04 0.0000000000000000e+00  -6.1007144699629090e-05 -3.4570877608923895e-04 0.0000000000000000e+00  3.0148147917286164e-05 -2.0350402753422614e-04 0.0000000000000000e+00  1.3318170918425573e-05 -3.6464507546506737e-05 0.0000000000000000e+00  -2.0902545308268973e-05 4.4873236534993641e-05 0.0000000000000000e+00  -2.3803369141629098e-05 5.4067143785238811e-05 0.0000000000000000e+00  -3.4078591983176624e-06 5.6729614995032078e-05 0.0000000000000000e+00  1.1909819150560966e-05 6.4886769992952145e-05 0.0000000000000000e+00  5.7947896135297550e-06 3.1123858106189492e-05 0.0000000000000000e+00  -3.3546675667113859e-05 -2.6381213319991202e-05 0.0000000000000000e+00  -4.6748726316912288e-05 -1.6897612442595306e-04 0.0000000000000000e+00  4.2521699939206680e-05 -3.2989349673973327e-04 0.0000000000000000e+00  1.2531667258805078e-04 -2.8540684652604543e-04 0.0000000000000000e+00  1.2879690680404196e-04 -2.0545987082751468e-04 0.0000000000000000e+00  7.8008876581360886e-05 -1.0677485093426670e-04 0.0000000000000000e+00  0.0000000000000000e+00 0.0000000000000000e+00 0.0000000000000000e+00  0.0000000000000000e+00 0.0000000000000000e+00 0.0000000000000000e+00  -2.2730171221005134e-04 -1.9759793518432932e-04 0.0000000000000000e+00  -4.1070152574458824e-04 -3.9681923994816596e-04 0.0000000000000000e+00  -4.9782874224741280e-04 -5.9889483347400671e-04 0.0000000000000000e+00  -4.1574400914530209e-04 -8.0412356998009135e-04 0.0000000000000000e+00  -2.7121527094920426e-04 -3.4494394110656486e-04 0.0000000000000000e+00  -2.9495354024586040e-04 4.9815170424054179e-05 0.0000000000000000e+00  -2.3633218274211502e-04 -1.8412782294394478e-05 0.0000000000000000e+00  -1.0931251104719478e-04 -4.0305666633715326e-05 0.0000000000000000e+00  -1.5813671396720496e-05 -4.5644274739290094e-05 0.0000000000000000e+00  7.6868946119089808e-05 -4.5207296339706167e-05 0.0000000000000000e+00  2.0012256295868727e-04 -4.7576543615646184e-05 0.0000000000000000e+00  3.0880071224328331e-04 9.3891027273908771e-05 0.0000000000000000e+00  2.9543315318884464e-04 -2.7869918094850735e-04 0.0000000000000000e+00  4.5894398929922524e-04 -7.7037738968615459e-04 0.0000000000000000e+00  5.3473819597285891e-04 -5.7973413458266006e-04 0.0000000000000000e+00  4.3722488407676937e-04 -3.8626106109840915e-04 0.0000000000000000e+00  2.4109193873639233e-04 -1.9287356526300202e-04 0.0000000000000000e+00  0.0000000000000000e+00 0.0000000000000000e+00 0.0000000000000000e+00  0.0000000000000000e+00 0.0000000000000000e+00 0.0000000000000000e+00  -5.5366298091989773e-04 -2.7752453913196875e-04 0.0000000000000000e+00  -1.0785725807983045e-03 -5.6790471400190376e-04 0.0000000000000000e+00  -1.5422269970390156e-03 -8.8651735258101980e-04 0.0000000000000000e+00  -1.9043098073372696e-03 -1.2548092651731417e-03 0.0000000000000000e+00  -1.8304322296237427e-03 -4.1737583955253822e-04 0.0000000000000000e+00  -1.8974135544688371e-03 4.1172419012196145e-04 0.0000000000000000e+00  -1.3045488331257505e-03 3.1106113495728337e-04 0.0000000000000000e+00  -6.4490142121618663e-04 2.5636021200315295e-04 0.0000000000000000e+00  4.0096497157285118e-05 2.4529633344788301e-04 0.0000000000000000e+00  7.3204588129255810e-04 2.7956223344347513e-04 0.0000000000000000e+00  1.4154874931758034e-03 3.6920177935640698e-04 0.0000000000000000e+00  2.0597577154151309e-03 5.3939369091220071e-04 0.0000000000000000e+00  1.9890255594078136e-03 -3.5449591932249148e-04 0.0000000000000000e+00  2.0359646166260665e-03 -1.2557587580086509e-03 0.0000000000000000e+00  1.6366330209962564e-03 -8.8510786904769676e-04 0.0000000000000000e+00  1.1397528354929495e-03 -5.6655237929628579e-04 0.0000000000000000e+00  5.8377946981759659e-04 -2.7681275030634215e-04 0.0000000000000000e+00  0.0000000000000000e+00 0.0000000000000000e+00 0.0000000000000000e+00  0.0000000000000000e+00 0.0000000000000000e+00 0.0000000000000000e+00  -9.9434533640506417e-04 -3.0588774147229889e-04 0.0000000000000000e+00  -1.9903559151236063e-03 -6.2581654594300279e-04 0.0000000000000000e+00  -2.9910155710751139e-03 -9.7506675325083141e-04 0.0000000000000000e+00  -4.0027018122504397e-03 -1.3713490038521820e-03 0.0000000000000000e+00  -4.0131628147868619e-03 -3.9218795000398352e-04 0.0000000000000000e+00  -4.0193789010714437e-03 5.9937245238092637e-04 0.0000000000000000e+00  -2.6412024347775369e-03 4.5694611938629345e-04 0.0000000000000000e+00  -1.2824671164050694e-03 3.7870726029752658e-04 0.0000000000000000e+00  6.8359360834356847e-05 3.5512826364012055e-04 0.0000000000000000e+00  1.4222625050737197e-03 3.8309512698369604e-04 0.0000000000000000e+00  2.7894573082259716e-03 4.6414188070974130e-04 0.0000000000000000e+00  4.1780246845489963e-03 6.0268532583399774e-04 0.0000000000000000e+00  4.1890461798266901e-03 -3.8949743389778721e-04 0.0000000000000000e+00  4.1949435038481780e-03 -1.3754955376536343e-03 0.0000000000000000e+00  3.1270609684007369e-03 -9.8155668605196152e-04 0.0000000000000000e+00  2.0776811879728904e-03 -6.3125550357283594e-04 0.0000000000000000e+00  1.0370853607948262e-03 -3.0886666732242028e-04 0.0000000000000000e+00  0.0000000000000000e+00 0.0000000000000000e+00 0.0000000000000000e+00  0.0000000000000000e+00 0.0000000000000000e+00 0.0000000000000000e+00  -1.4274216179490382e-03 -2.7799287045408681e-04 0.0000000000000000e+00  -2.8819864552432767e-03 -5.6624427176657000e-04 0.0000000000000000e+00  -4.3931926947829757e-03 -8.7518958113362783e-04 0.0000000000000000e+00  -5.9953467462558994e-03 -1.2154510058666993e-03 0.0000000000000000e+00  -6.0523261185909429e-03 -3.7944275145135098e-04 0.0000000000000000e+00  -5.9987545211068471e-03 4.5214165044295881e-04 0.0000000000000000e+00  -3.9025358325882114e-03 3.4683918769187364e-04 0.0000000000000000e+00  -1.8894707467856787e-03 2.8302523767294411e-04 0.0000000000000000e+00  8.4352584374840247e-05 2.5932764523512147e-04 0.0000000000000000e+00  2.0604439415614420e-03 2.7485022126898402e-04 0.0000000000000000e+00  4.0803307150625596e-03 3.2963579716686583e-04 0.0000000000000000e+00  6.1882011425790041e-03 4.2445584893762225e-04 0.0000000000000000e+00  6.2485988524849908e-03 -4.1522640029112537e-04 0.0000000000000000e+00  6.1957951012940223e-03 -1.2555472540404945e-03 0.0000000000000000e+00  4.5406705191560455e-03 -9.0308559284699597e-04 0.0000000000000000e+00  2.9787730395313050e-03 -5.8405079836783931e-04 0.0000000000000000e+00  1.4753351525083889e-03 -2.8669627285803729e-04 0.0000000000000000e+00  0.0000000000000000e+00 0.0000000000000000e+00 0.0000000000000000e+00  0.0000000000000000e+00 0.0000000000000000e+00 0.0000000000000000e+00  -1.7509244513627471e-03 -2.0903930776990838e-04 0.0000000000000000e+00  -3.5452681150673214e-03 -4.2379785564571418e-04 0.0000000000000000e+00  -5.4287088646331437e-03 -6.4988921437583779e-04 0.0000000000000000e+00  -7.4514204111248393e-03 -8.9269132359157035e-04 0.0000000000000000e+00  -7.5374562720945289e-03 -3.7637440037385648e-04 0.0000000000000000e+00  -7.4547735265995171e-03 1.3928046472530198e-04 0.0000000000000000e+00  -4.8343787093734830e-03 7.1399645381448585e-05 0.0000000000000000e+00  -2.3409735869859422e-03 2.7522799659173604e-05 0.0000000000000000e+00  9.1213802030579871e-05 7.2838021360146170e-06 0.0000000000000000e+00  2.5247678734648263e-03 1.0176323929115899e-05 0.0000000000000000e+00  5.0221841842112798e-03 3.5588005158226133e-05 0.0000000000000000e+00  7.6489272994213443e-03 8.2676594622158470e-05 0.0000000000000000e+00  7.7365674678331504e-03 -4.3444237315500960e-04 0.0000000000000000e+00  7.6531009816015617e-03 -9.5003031812173765e-04 0.0000000000000000e+00  5.5781671049338058e-03 -6.9067071571198198e-04 0.0000000000000000e+00  3.6440146042289183e-03 -4.4997972524340356e-04 0.0000000000000000e+00  1.8000252343183397e-03 -2.2184006733553160e-04 0.0000000000000000e+00  0.0000000000000000e+00 0.0000000000000000e+00 0.0000000000000000e+00  0.0000000000000000e+00 0.0000000000000000e+00 0.0000000000000000e+00  -1.8998269500120851e-03 -1.1722434537585784e-04 0.0000000000000000e+00  -3.8503346528840658e-03 -2.3599637863167024e-04 0.0000000000000000e+00  -5.9041380083728100e-03 -3.5769240162478487e-04 0.0000000000000000e+00  -8.1177198397101892e-03 -4.8335168291194105e-04 0.0000000000000000e+00  -8.2158814532692151e-03 -3.7617429244524722e-04 0.0000000000000000e+00  -8.1191617757652209e-03 -2.6972851719174240e-04 0.0000000000000000e+00  -5.2617888192966695e-03 -2.9959813071663325e-04 0.0000000000000000e+00  -2.5492818612007986e-03 -3.2205849002068366e-04 0.0000000000000000e+00  9.2536044270375244e-05 -3.3681527917318681e-04 0.0000000000000000e+00  2.7351562887820771e-03 -3.4411918157039917e-04 0.0000000000000000e+00  5.4500341357150359e-03 -3.4474677805505782e-04 0.0000000000000000e+00  8.3112471270802030e-03 -3.4004746092394892e-04 0.0000000000000000e+00  8.4098558931905102e-03 -4.4399547323276497e-04 0.0000000000000000e+00  8.3125514459304623e-03 -5.4689526305352106e-04 0.0000000000000000e+00  6.0492437487218113e-03 -4.0351531491386399e-04 0.0000000000000000e+00  3.9465767421237672e-03 -2.6567234957597326e-04 0.0000000000000000e+00  1.9477974853253685e-03 -1.3180087278226113e-04 0.0000000000000000e+00  -6.4389910857698076e-12 -6.5946186798380934e-12 0.0000000000000000e+00  0.0000000000000000e+00 0.0000000000000000e+00 0.0000000000000000e+00  -1.8451531017198138e-03 -1.9236437398375657e-05 0.0000000000000000e+00  -3.7404028101050779e-03 -3.6503328146616046e-05 0.0000000000000000e+00  -5.7374146796231691e-03 -4.9639617830620483e-05 0.0000000000000000e+00  -7.8909799576676858e-03 -5.6097402598173571e-05 0.0000000000000000e+00  -7.9870811847395744e-03 -3.7992462239180716e-04 0.0000000000000000e+00  -7.8919199287699696e-03 -7.0456809937923621e-04 0.0000000000000000e+00  -5.1133057986848581e-03 -7.0008089593797556e-04 0.0000000000000000e+00  -2.4765169642339598e-03 -7.0228781603391872e-04 0.0000000000000000e+00  9.0642569270596392e-05 -7.1055980511849546e-04 0.0000000000000000e+00  2.6581824645063568e-03 -7.2496687941849816e-04 0.0000000000000000e+00  5.2960892768532811e-03 -7.4626486444076816e-04 0.0000000000000000e+00  8.0764917630025482e-03 -7.7590821610296838e-04 0.0000000000000000e+00  8.1712500293328900e-03 -4.4705037039594617e-04 0.0000000000000000e+00  8.0743095209669328e-03 -1.1759633150453174e-04 0.0000000000000000e+00  5.8745920300777923e-03 -9.4223232628239990e-05 0.0000000000000000e+00  3.8316865470520789e-03 -6.5496581964492301e-05 0.0000000000000000e+00  1.8907392609975419e-03 -3.3514406565690759e-05 0.0000000000000000e+00  0.0000000000000000e+00 0.0000000000000000e+00 0.0000000000000000e+00  0.0000000000000000e+00 0.0000000000000000e+00 0.0000000000000000e+00  -1.5892166240368945e-03 7.0873707089611659e-05 0.0000000000000000e+00  -3.2215677844505608e-03 1.4646601876613721e-04 0.0000000000000000e+00  -4.9413931812472729e-03 2.3169141340053084e-04 0.0000000000000000e+00  -6.7953831319620414e-03 3.3186905416881873e-04 0.0000000000000000e+00  -6.8782553225823781e-03 -3.8735586045859563e-04 0.0000000000000000e+00  -6.7968711411242602e-03 -1.1073159642156153e-03 0.0000000000000000e+00  -4.4009856071296613e-03 -1.0739257873738639e-03 0.0000000000000000e+00  -2.1268336907472114e-03 -1.0583877963291990e-03 0.0000000000000000e+00  8.7309663171083031e-05 -1.0598964938852038e-03 0.0000000000000000e+00  2.3015119474768765e-03 -1.0783936743577536e-03 0.0000000000000000e+00  4.5758235819385994e-03 -1.1145649484811870e-03 0.0000000000000000e+00  6.9719195373634402e-03 -1.1698448014933307e-03 0.0000000000000000e+00  7.0510611725971362e-03 -4.4529464079948644e-04 0.0000000000000000e+00  6.9661237244650880e-03 2.7959555915090011e-04 0.0000000000000000e+00  5.0696542177700536e-03 1.9363352536770932e-04 0.0000000000000000e+00  3.3071560410517366e-03 1.2164053259499875e-04 0.0000000000000000e+00  1.6320283191184630e-03 5.8625260198293245e-05 0.0000000000000000e+00  0.0000000000000000e+00 0.0000000000000000e+00 0.0000000000000000e+00  0.0000000000000000e+00 0.0000000000000000e+00 0.0000000000000000e+00  -1.1597470462528898e-03 1.4212716391139940e-04 0.0000000000000000e+00  -2.3508566634748147e-03 2.9091226783353578e-04 0.0000000000000000e+00  -3.6055432091957715e-03 4.5321117679829402e-04 0.0000000000000000e+00  -4.9575683736897752e-03 6.3629264135311341e-04 0.0000000000000000e+00  -5.0187206359251831e-03 -3.9793142158088822e-04 0.0000000000000000e+00  -4.9603131040484635e-03 -1.4327251608079721e-03 0.0000000000000000e+00  -3.2050681550821131e-03 -1.3766758923948073e-03 0.0000000000000000e+00  -1.5386278652503660e-03 -1.3466142321006094e-03 0.0000000000000000e+00  8.3883332230096945e-05 -1.3415968144273446e-03 0.0000000000000000e+00  1.7062142116314619e-03 -1.3614506986500056e-03 0.0000000000000000e+00  3.3720968687847687e-03 -1.4067725642323741e-03 0.0000000000000000e+00  5.1263574885853950e-03 -1.4789305773789342e-03 0.0000000000000000e+00  5.1812026035468715e-03 -4.4029610729686520e-04 0.0000000000000000e+00  5.1171003408777152e-03 5.9848582386888333e-04 0.0000000000000000e+00  3.7258102927300437e-03 4.2561428908056867e-04 0.0000000000000000e+00  2.4313125643212570e-03 2.7287417827207699e-04 0.0000000000000000e+00  1.2000505657561167e-03 1.3321590095326856e-04 0.0000000000000000e+00  0.0000000000000000e+00 0.0000000000000000e+00 0.0000000000000000e+00  0.0000000000000000e+00 0.0000000000000000e+00 0.0000000000000000e+00  -6.0367034154394986e-04 1.8676926515135141e-04 0.0000000000000000e+00  -1.2237278431889926e-03 3.8131496281573469e-04 0.0000000000000000e+00  -1.8770415019574206e-03 5.9161391404428357e-04 0.0000000000000000e+00  -2.5812261943463362e-03 8.2604996723202638e-04 0.0000000000000000e+00  -2.6148639942151562e-03 -4.1064719080749121e-04 0.0000000000000000e+00  -2.5854808628588844e-03 -1.6476424505084842e-03 0.0000000000000000e+00  -1.6571982250410684e-03 -1.5758046605296977e-03 0.0000000000000000e+00  -7.7618447926764453e-04 -1.5349979729550082e-03 0.0000000000000000e+00  8.1324151721232470e-05 -1.5241531409709373e-03 0.0000000000000000e+00  9.3849366060642133e-04 -1.5429860456625890e-03 0.0000000000000000e+00  1.8184705791546684e-03 -1.5919975175753820e-03 0.0000000000000000e+00  2.7449593876080294e-03 -1.6724744780659978e-03 0.0000000000000000e+00  2.7699844352322631e-03 -4.3316843308591148e-04 0.0000000000000000e+00 