<?xml version="1.0"?>
<VTKFile type="UnstructuredGrid"  version="0.1"  >
<UnstructuredGrid>
<Piece  NumberOfPoints="589" NumberOfCells="1080">
<Points>
<DataArray  type="Float64"  NumberOfComponents="3"  format="ascii">-9 0 0  -8 0 0  -7 0 0  -6 0 0  -5 0 0  -4 0 0  -3 0 0  -2 0 0  -1 0 0  0 0 0  1 0 0  2 0 0  3 0 0  4 0 0  5 0 0  6 0 0  7 0 0  8 0 0  9 0 0  -9 2 0  -8.000003444659894 1.999994375951799 0  -7.00000728423028 1.999989461313058 0  -6.000012419899396 1.999985834491023 0  -5.000020887408413 1.999983754516029 0  -4.000012086324214 1.999987758600489 0  -3.000002976537367 1.99999165832573 0  -1.999998541685504 1.99999535657978 0  -0.9999978321963673 1.999998262733213 0  5.777052720492138e-07 1.999999473002098 0  0.9999989119530138 1.999998415560077 0  1.999999363749177 1.999995274370075 0  3.000003450288362 1.999991364399667 0  4.000011749273272 1.999986966436056 0  5.00002392194865 1.999984485135994 0  6.000014769269554 1.999985529346024 0  7.0000088971554 1.999988995236956 0  8.000004269071951 1.999994085300081 0  9 2 0  -9.000000000004983 4 0  -8.000005309646578 3.999985914451155 0  -7.00000938408602 3.999973771494776 0  -6.000011512416115 3.999965481668176 0  -5.000011877600944 3.9999628815536 0  -3.999998812148506 3.999964518960952 0  -2.999989997900484 3.999975599232709 0  -1.999987663225937 3.99999013877991 0  -0.9999909575991122 4.000001806390083 0  2.690583686235274e-06 4.000006339894132 0  0.9999962646567279 4.000002157665559 0  1.999992752225359 3.99999135707108 0  2.999995167400503 3.999976682465423 0  4.000004446506104 3.999961583891751 0  5.000018331273693 3.999955358601477 0  6.000016416184701 3.999961372145597 0  7.000012818090752 3.999971494051844 0  8.000007101974679 3.999984872323441 0  9 4 0  -9 6 0  -8.000012115234743 5.999969683520377 0  -7.000019268378162 5.999942670032884 0  -6.000017657501384 5.999922370853866 0  -5.000006158226229 5.99991209667618 0  -3.999980411593317 5.999928329748855 0  -2.999968550712345 5.999962900007291 0  -1.999972796010229 5.999999296547553 0  -0.9999840233954997 6.000019678235998 0  4.409337478699923e-06 6.000023634417069 0  0.9999938715005131 6.000016503109216 0  1.999985857162572 5.999997072947468 0  2.999983107497318 5.99996430402443 0  3.999989855391195 5.999930028864953 0  5.000012978864567 5.999912227217014 0  6.000024795136709 5.999920782404008 0  7.000025210808983 5.999940968478932 0  8.000015477848429 5.999968662763085 0  9 6 0  -9 8 0  -8.000038766479227 7.999940245307468 0  -7.000064207093889 7.999884716077056 0  -6.000063355108053 7.999839164794237 0  -5.000024970942357 7.999813092462206 0  -3.999975459648017 7.999889144031826 0  -2.99998332336104 7.999978912184377 0  -2.000000856677552 8.00002335439582 0  -1.000001996232646 8.000029297077566 0  9.099164274069737e-06 8.000031156727806 0  1.000017153288739 8.000035593140892 0  2.000013321095273 8.000015685617027 0  2.999991049585037 7.999981853713359 0  3.99998369563431 7.999899663685229 0  5.000034488202654 7.999807168787083 0  6.000078772982688 7.999833676143124 0  7.000078193841243 7.999880415553001 0  8.000046829552764 7.999937885608915 0  9 8 0  -9 10 0  -8.000118699530626 9.999893922818863 0  -7.000214292752697 9.999786877556165 0  -6.000259158236481 9.999678087984158 0  -5.000214753677733 9.999567223292541 0  -4.000136853615427 9.999811237288856 0  -3.000147288238745 10.00002178187301 0  -2.000114609318754 9.999988379796363 0  -1.000046084973149 9.9999776878077 0  5.204805558237512e-06 9.999975072016003 0  1.000056566300775 9.999974988882727 0  2.000125486188475 9.999972569105729 0  3.000185425340893 10.00005048731186 0  4.000177562063267 9.99983721210357 0  5.00027123173654 9.999556592985993 0  6.000312155485669 9.999665681689539 0  7.000254284811941 9.999776962630241 0  8.000140020626143 9.999888545570919 0  9 10 0  -9 12 0  -8.000290958405396 11.99985150969326 0  -7.000567126698831 11.99969607862083 0  -6.000811726916935 11.99952542011595 0  -5.001003898295128 11.99932800617407 0  -4.000963975154899 11.99977021763209 0  -3.000997190927051 12.00020783474142 0  -2.000664952914182 12.00015847694504 0  -1.000298921191731 12.00013350459681 0  7.902979690976737e-05 12.00013185863038 0  1.000458845023925 12.00015474452858 0  2.000831503988596 12.00020797063965 0  3.001178867445812 12.00030578022595 0  4.001138300941538 11.99979345507107 0  5.001167383619657 11.99927678708413 0  6.000940460213533 11.99948901194951 0  7.000655821084451 11.99967235934641 0  8.000336158062046 11.99983975543643 0  9 12 0  -9 14 0  -8.000522174266273 13.9998369010287 0  -7.001045906870496 13.99966626106538 0  -6.001573452627996 13.99947987862001 0  -5.002108917983122 13.99926825970222 0  -4.002114055144358 13.99978122498769 0  -3.002114547941251 14.00030052277247 0  -2.00135085727157 14.00023110944208 0  -1.000599587280635 14.00019608430094 0  0.0001454808251710949 14.00019058397818 0  1.000890100639634 14.00021322435633 0  2.001639341434086 14.00026516232138 0  3.002396782649951 14.00034914113355 0  4.002401901837723 13.99977291279016 0  5.002408199580993 13.99919989081966 0  6.001799063075604 13.9994280380131 0  7.001197120412027 13.99963167316776 0  8.000598066971868 13.99981963314678 0  9 14 0  -9 16 0  -8.000746881289674 15.99985248345749 0  -7.001508979384442 15.99969947132815 0  -6.002302765487423 15.99953537044681 0  -5.003147318317357 15.99935448625089 0  -4.003177547699458 15.99978577631055 0  -3.003146277319106 16.0002144534216 0  -2.00198781026104 16.00016642100733 0  -1.000875748425923 16.00014075323295 0  0.0002137732580416408 16.00013691933968 0  1.001303268360897 16.00015468674844 0  2.002415176425531 16.00019436586297 0  3.003573286124862 16.00025669632135 0  4.00360624352486 15.99975747158097 0  5.003579172178254 15.99925760196076 0  6.002627930672297 15.99946524219268 0  7.001726277323791 15.99965377887444 0  8.000855677479503 15.99982993197777 0  9 16 0  -9 18 0  -8.000910432884107 17.9998900546972 0  -7.001844779005615 17.99977706590263 0  -6.002828171137201 17.99965804236975 0  -5.003888191777932 17.99953011698095 0  -4.003934168417452 17.99978516765512 0  -3.003887507047889 18.00003959399798 0  -2.002440091687709 18.00001246897328 0  -1.001062177013667 17.99999828976909 0  0.0002821888787751699 17.99999705183831 0  1.001627242010687 18.00000870215833 0  2.003007172573522 18.00003315774797 0  3.004457785830917 18.00007023933208 0  4.004506495123005 17.99974551263704 0  5.004461461707395 17.99942137841073 0  6.003257339897968 17.99957894599301 0  7.002130520449198 17.99972547203889 0  8.001053193994366 17.99986459152279 0  9 18 0  -9 20 0  -8.000978064475655 19.99993979551127 0  -7.001983861290655 19.99987880712657 0  -6.003046181298354 19.99981633969517 0  -5.0041959373133 19.99975187648968 0  -4.004248458542492 19.99978298221357 0  -3.004194553613192 19.99981345104212 0  -2.002615456218373 19.99980687867284 0  -1.001114911871875 19.99980421223251 0  0.0003478629388238384 19.99980578290997 0  1.001812219875971 19.99981164470915 0  2.003317526495386 19.99982158503821 0  3.004904623821417 19.99983510004815 0  4.004960173734974 19.99973890982853 0  5.004906461022475 19.99964308393034 0  6.003576394889087 19.99973684173531 0  7.002336081091688 19.99982680338418 0  8.001153801836102 19.99991409135475 0  8.999999999971417 19.99999999999815 0  -9 22 0  -8.000934516747366 21.99999266781045 0  -7.001896315290534 21.9999864654222 0  -6.002913546490529 21.99998262455223 0  -5.004016081967465 21.99998258303357 0  -4.004067331514539 21.99977878032769 0  -3.00401459230701 21.99957433322113 0  -2.002477724098447 21.99958571330107 0  -1.001017084485497 21.99959324045004 0  0.0004072276697586243 21.9995974049129 0  1.001833954982687 21.99959832590327 0  2.003301877698279 21.99959575914978 0  3.004851012785005 21.99958909037931 0  4.004905200793154 21.99973611724979 0  5.004850820508677 21.99988330125857 0  6.003535339201619 21.99990991650666 0  7.002308836920998 21.99993882381618 0  8.0011401781179 21.99996909562302 0  9 22 0  -9 24 0  -8.000781578229452 24.00004102306112 0  -7.001586481727589 24.00008468091999 0  -6.002438766173833 24.00013371535347 0  -5.00336366973128 24.00019108581196 0  -4.003407429467671 23.99977288303292 0  -3.003362488409265 23.999354107749 0  -2.002036174347887 23.99937991443476 0  -1.000774448294 23.99939567793714 0  0.0004569694079274229 23.99940196018002 0  1.001691489357529 23.99939891571683 0  2.002962570304294 23.99938629423509 0  3.00430463761492 23.99936343800526 0  4.004350846406989 23.99973641908266 0  5.004302466165506 24.00010944179367 0  6.00313731954665 24.00007381224481 0  7.002049592993065 24.00004537754742 0  8.001012346389087 24.00002156084871 0  9 24 0  -9 26 0  -8.000535001786163 26.00007884685887 0  -7.001086744447274 26.00016139820169 0  -6.001672434042731 26.00025146853305 0  -5.002310094770879 26.00035309649965 0  -4.002341629748013 25.99976571020693 0  -3.002309533824774 25.99917784892041 0  -2.001337341299612 25.99921418440388 0  -1.000411061130509 25.99923593882767 0  0.0004943516163864645 25.99924372081421 0  1.001403367099239 25.99923771094085 0  2.002340508112262 25.9992176627306 0  3.003330977888948 25.99918290164667 0  4.003364195102802 25.99973907449044 0  5.00332694300434 26.00029518162346 0  6.002428594890097 26.00020892222397 0  7.001587809676738 26.00013345688415 0  8.000784623722469 26.00006500284009 0  9 26 0  -9 28 0  -8.000221098649188 28.00010186122757 0  -7.000450560932993 28.00020804802794 0  -6.000696996658517 28.00032299851105 0  -5.00096944372765 28.0004513775989 0  -4.000985555467012 27.99975783924322 0  -3.000969676947036 27.99906395928014 0  -2.000455910842036 27.99910666834522 0  -0.9999646814655734 27.99913197940458 0  0.0005173697170544055 27.99914053865752 0  1.001003319590669 27.99913254813061 0  2.001506299015535 27.99910776912103 0  3.002039823423826 27.99906552145251 0  4.002056708498143 27.99974346436009 0  5.002034205191545 28.00042126905042 0  6.001488582154726 28.00030085605411 0  7.000974982366319 28.00019349486034 0
[...]
<PointData  Vectors="f_42"> 
<DataArray  type="Float64"  Name="f_42"  NumberOfComponents="3" format="ascii">0.0000000000000000e+00 0.0000000000000000e+00 0.0000000000000000e+00  0.0000000000000000e+00 0.0000000000000000e+00 0.0000000000000000e+00  0.0000000000000000e+00 0.0000000000000000e+00 0.0000000000000000e+00  0.0000000000000000e+00 0.0000000000000000e+00 0.0000000000000000e+00  0.0000000000000000e+00 0.0000000000000000e+00 0.0000000000000000e+00  0.0000000000000000e+00 0.0000000000000000e+00 0.0000000000000000e+00  0.0000000000000000e+00 0.0000000000000000e+00 0.0000000000000000e+00  0.0000000000000000e+00 0.0000000000000000e+00 0.0000000000000000e+00  0.0000000000000000e+00 0.0000000000000000e+00 0.0000000000000000e+00  0.0000000000000000e+00 0.0000000000000000e+00 0.0000000000000000e+00  0.0000000000000000e+00 0.0000000000000000e+00 0.0000000000000000e+00  0.0000000000000000e+00 0.0000000000000000e+00 0.0000000000000000e+00  0.0000000000000000e+00 0.0000000000000000e+00 0.0000000000000000e+00  0.0000000000000000e+00 0.0000000000000000e+00 0.0000000000000000e+00  0.0000000000000000e+00 0.0000000000000000e+00 0.0000000000000000e+00  0.0000000000000000e+00 0.0000000000000000e+00 0.0000000000000000e+00  0.0000000000000000e+00 0.0000000000000000e+00 0.0000000000000000e+00  0.0000000000000000e+00 0.0000000000000000e+00 0.0000000000000000e+00  0.0000000000000000e+00 0.0000000000000000e+00 0.0000000000000000e+00  0.0000000000000000e+00 0.0000000000000000e+00 0.0000000000000000e+00  -3.4446599049731609e-06 -5.6240481998560546e-06 0.0000000000000000e+00  -7.2842302760955858e-06 -1.0538686941880552e-05 0.0000000000000000e+00  -1.2419899395907765e-05 -1.4165508977054221e-05 0.0000000000000000e+00  -2.0887408423220965e-05 -1.6245483972801252e-05 0.0000000000000000e+00  -1.2086324213573925e-05 -1.2241399510109987e-05 0.0000000000000000e+00  -2.9765373705426572e-06 -8.3416742692967655e-06 0.0000000000000000e+00  1.4583144978926849e-06 -4.6434202203003769e-06 0.0000000000000000e+00  2.1678036316973906e-06 -1.7372667863848808e-06 0.0000000000000000e+00  5.7770527204921384e-07 -5.2699790376129882e-07 0.0000000000000000e+00  -1.0880469853682360e-06 -1.5844399225929938e-06 0.0000000000000000e+00  -6.3625082375406639e-07 -4.7256299226135483e-06 0.0000000000000000e+00  3.4502883644265933e-06 -8.6356003350351468e-06 0.0000000000000000e+00  1.1749273274530568e-05 -1.3033563944774976e-05 0.0000000000000000e+00  2.3921948649951535e-05 -1.5514864005366534e-05 0.0000000000000000e+00  1.4769269551093150e-05 -1.4470653975278064e-05 0.0000000000000000e+00  8.8971553960497281e-06 -1.1004763045693298e-05 0.0000000000000000e+00  4.2690719454463937e-06 -5.9146999201079857e-06 0.0000000000000000e+00  0.0000000000000000e+00 0.0000000000000000e+00 0.0000000000000000e+00  -4.9820587634006413e-12 0.0000000000000000e+00 0.0000000000000000e+00  -5.3096465724961130e-06 -1.4085548846937408e-05 0.0000000000000000e+00  -9.3840860138923844e-06 -2.6228505223829705e-05 0.0000000000000000e+00  -1.1512416115011339e-05 -3.4518331824774062e-05 0.0000000000000000e+00  -1.1877600949667956e-05 -3.7118446397736449e-05 0.0000000000000000e+00  1.1878514915968071e-06 -3.5481039047445928e-05 0.0000000000000000e+00  1.0002099514166337e-05 -2.4400767289843783e-05 0.0000000000000000e+00  1.2336774063150835e-05 -9.8612200917160392e-06 0.0000000000000000e+00  9.0424008878962612e-06 1.8063900839216132e-06 0.0000000000000000e+00  2.6905836862352744e-06 6.3398941334155771e-06 0.0000000000000000e+00  -3.7353432719169648e-06 2.1576655655245993e-06 0.0000000000000000e+00  -7.2477746404642958e-06 -8.6429289203240432e-06 0.0000000000000000e+00  -4.8325994948906918e-06 -2.3317534577554621e-05 0.0000000000000000e+00  4.4465061016689999e-06 -3.8416108247562816e-05 0.0000000000000000e+00  1.8331273688627122e-05 -4.4641398520749077e-05 0.0000000000000000e+00  1.6416184695898038e-05 -3.8627854400298749e-05 0.0000000000000000e+00  1.2818090754745226e-05 -2.8505948155410755e-05 0.0000000000000000e+00  7.1019746894359288e-06 -1.5127676560891345e-05 0.0000000000000000e+00  0.0000000000000000e+00 0.0000000000000000e+00 0.0000000000000000e+00  0.0000000000000000e+00 0.0000000000000000e+00 0.0000000000000000e+00  -1.2115234756593828e-05 -3.0316479629077254e-05 0.0000000000000000e+00  -1.9268378158056798e-05 -5.7329967115378455e-05 0.0000000000000000e+00  -1.7657501389965168e-05 -7.7629146129746594e-05 0.0000000000000000e+00  -6.1582262267587186e-06 -8.7903323814688173e-05 0.0000000000000000e+00  1.9588406684028951e-05 -7.1670251140878123e-05 0.0000000000000000e+00  3.1449287656405785e-05 -3.7099992705957345e-05 0.0000000000000000e+00  2.7203989771126258e-05 -7.0345245330733036e-07 0.0000000000000000e+00  1.5976604500176835e-05 1.9678236000970326e-05 0.0000000000000000e+00  4.4093374786999229e-06 2.3634417063188138e-05 0.0000000000000000e+00  -6.1284994872571018e-06 1.6503109219730202e-05 0.0000000000000000e+00  -1.4142837427087853e-05 -2.9270525343831268e-06 0.0000000000000000e+00  -1.6892502683439308e-05 -3.5695975565395241e-05 0.0000000000000000e+00  -1.0144608804848350e-05 -6.9971135046789938e-05 0.0000000000000000e+00  1.2978864569219976e-05 -8.7772782985969341e-05 0.0000000000000000e+00  2.4795136701434571e-05 -7.9217595989390974e-05 0.0000000000000000e+00  2.5210808979885468e-05 -5.9031521067988356e-05 0.0000000000000000e+00  1.5477848428994582e-05 -3.1337236915381425e-05 0.0000000000000000e+00  0.0000000000000000e+00 0.0000000000000000e+00 0.0000000000000000e+00  0.0000000000000000e+00 0.0000000000000000e+00 0.0000000000000000e+00  -3.8766479236340886e-05 -5.9754692530102679e-05 0.0000000000000000e+00  -6.4207093891573936e-05 -1.1528392294566255e-04 0.0000000000000000e+00  -6.3355108052519479e-05 -1.6083520576905928e-04 0.0000000000000000e+00  -2.4970942357008829e-05 -1.8690753778163711e-04 0.0000000000000000e+00  2.4540351984767774e-05 -1.1085596816841214e-04 0.0000000000000000e+00  1.6676638958881964e-05 -2.1087815625363936e-05 0.0000000000000000e+00  -8.5667755280382271e-07 2.3354395821683214e-05 0.0000000000000000e+00  -1.9962326463281377e-06 2.9297077569064437e-05 0.0000000000000000e+00  9.0991642740697369e-06 3.1156727803140391e-05 0.0000000000000000e+00  1.7153288740241294e-05 3.5593140878218701e-05 0.0000000000000000e+00  1.3321095273072978e-05 1.5685617018556230e-05 0.0000000000000000e+00  -8.9504149646897164e-06 -1.8146286635195982e-05 0.0000000000000000e+00  -1.6304365691423607e-05 -1.0033631476993459e-04 0.0000000000000000e+00  3.4488202646999020e-05 -1.9283121292496344e-04 0.0000000000000000e+00  7.8772982688628574e-05 -1.6632385687531559e-04 0.0000000000000000e+00  7.8193841244338948e-05 -1.1958444700794791e-04 0.0000000000000000e+00  4.6829552756066107e-05 -6.2114391084960608e-05 0.0000000000000000e+00  0.0000000000000000e+00 0.0000000000000000e+00 0.0000000000000000e+00  0.0000000000000000e+00 0.0000000000000000e+00 0.0000000000000000e+00  -1.1869953062543719e-04 -1.0607718113297556e-04 0.0000000000000000e+00  -2.1429275269519411e-04 -2.1312244383342679e-04 0.0000000000000000e+00  -2.5915823648250827e-04 -3.2191201583837547e-04 0.0000000000000000e+00  -2.1475367773774804e-04 -4.3277670745840653e-04 0.0000000000000000e+00  -1.3685361542387957e-04 -1.8876271113939038e-04 0.0000000000000000e+00  -1.4728823874609484e-04 2.1781873008919282e-05 0.0000000000000000e+00  -1.1460931875816457e-04 -1.1620203629672371e-05 0.0000000000000000e+00  -4.6084973149901402e-05 -2.2312192304759308e-05 0.0000000000000000e+00  5.2048055582375120e-06 -2.4927984005394142e-05 0.0000000000000000e+00  5.6566300777063683e-05 -2.5011117273245238e-05 0.0000000000000000e+00  1.2548618847682048e-04 -2.7430894275048764e-05 0.0000000000000000e+00  1.8542534089148908e-04 5.0487311856906184e-05 0.0000000000000000e+00  1.7756206326977012e-04 -1.6278789643065739e-04 0.0000000000000000e+00  2.7123173654554497e-04 -4.4340701401160139e-04 0.0000000000000000e+00  3.1215548567639195e-04 -3.3431831045841365e-04 0.0000000000000000e+00  2.5428481194021175e-04 -2.2303736975819619e-04 0.0000000000000000e+00  1.4002062613397342e-04 -1.1145442907910301e-04 0.0000000000000000e+00  0.0000000000000000e+00 0.0000000000000000e+00 0.0000000000000000e+00  0.0000000000000000e+00 0.0000000000000000e+00 0.0000000000000000e+00  -2.9095840539462197e-04 -1.4849030674335070e-04 0.0000000000000000e+00  -5.6712669883178925e-04 -3.0392137916875701e-04 0.0000000000000000e+00  -8.1172691693541011e-04 -4.7457988403409775e-04 0.0000000000000000e+00  -1.0038982951251351e-03 -6.7199382593189575e-04 0.0000000000000000e+00  -9.6397515490014290e-04 -2.2978236790874144e-04 0.0000000000000000e+00  -9.9719092705198792e-04 2.0783474142821291e-04 0.0000000000000000e+00  -6.6495291418242704e-04 1.5847694504554337e-04 0.0000000000000000e+00  -2.9892119173068667e-04 1.3350459680366809e-04 0.0000000000000000e+00  7.9029796909767374e-05 1.3185863039066957e-04 0.0000000000000000e+00  4.5884502392399461e-04 1.5474452857410371e-04 0.0000000000000000e+00  8.3150398859351948e-04 2.0797063964860763e-04 0.0000000000000000e+00  1.1788674458111704e-03 3.0578022593421802e-04 0.0000000000000000e+00  1.1383009415403180e-03 -2.0654492892440749e-04 0.0000000000000000e+00  1.1673836196489601e-03 -7.2321291586151747e-04 0.0000000000000000e+00  9.4046021353310152e-04 -5.1098805048916101e-04 0.0000000000000000e+00  6.5582108445935055e-04 -3.2764065358723628e-04 0.0000000000000000e+00  3.3615806204031004e-04 -1.6024456357185648e-04 0.0000000000000000e+00  0.0000000000000000e+00 0.0000000000000000e+00 0.0000000000000000e+00  0.0000000000000000e+00 0.0000000000000000e+00 0.0000000000000000e+00  -5.2217426628284520e-04 -1.6309897130001264e-04 0.0000000000000000e+00  -1.0459068704987704e-03 -3.3373893462544359e-04 0.0000000000000000e+00  -1.5734526279978173e-03 -5.2012137999205227e-04 0.0000000000000000e+00  -2.1089179831273066e-03 -7.3174029778533831e-04 0.0000000000000000e+00  -2.1140551443605098e-03 -2.1877501230500510e-04 0.0000000000000000e+00  -2.1145479412492799e-03 3.0052277247063022e-04 0.0000000000000000e+00  -1.3508572715692144e-03 2.3110944206895169e-04 0.0000000000000000e+00  -5.9958728063415237e-04 1.9608430093203346e-04 0.0000000000000000e+00  1.4548082517109486e-04 1.9058397817307460e-04 0.0000000000000000e+00  8.9010063963249183e-04 2.1322435634211465e-04 0.0000000000000000e+00  1.6393414340902677e-03 2.6516232138184181e-04 0.0000000000000000e+00  2.3967826499512973e-03 3.4914113353890066e-04 0.0000000000000000e+00  2.4019018377142527e-03 -2.2708720984204850e-04 0.0000000000000000e+00  2.4081995809977002e-03 -8.0010918034429952e-04 0.0000000000000000e+00  1.7990630756021880e-03 -5.7196198691053719e-04 0.0000000000000000e+00  1.1971204120253633e-03 -3.6832683225097304e-04 0.0000000000000000e+00  5.9806697186525815e-04 -1.8036685323000274e-04 0.0000000000000000e+00  0.0000000000000000e+00 0.0000000000000000e+00 0.0000000000000000e+00  0.0000000000000000e+00 0.0000000000000000e+00 0.0000000000000000e+00  -7.4688128966089208e-04 -1.4751654251216764e-04 0.0000000000000000e+00  -1.5089793844443185e-03 -3.0052867184708951e-04 0.0000000000000000e+00  -2.3027654874220754e-03 -4.6462955318476312e-04 0.0000000000000000e+00  -3.1473183173561727e-03 -6.4551374912134364e-04 0.0000000000000000e+00  -3.1775476994573269e-03 -2.1422368944689461e-04 0.0000000000000000e+00  -3.1462773191065774e-03 2.1445342161258244e-04 0.0000000000000000e+00  -1.9878102610407589e-03 1.6642100733041008e-04 0.0000000000000000e+00  -8.7574842592388436e-04 1.4075323294727451e-04 0.0000000000000000e+00  2.1377325804164076e-04 1.3691933968830973e-04 0.0000000000000000e+00  1.3032683608958887e-03 1.5468674843840003e-04 0.0000000000000000e+00  2.4151764255285597e-03 1.9436586296290038e-04 0.0000000000000000e+00  3.5732861248669199e-03 2.5669632133855288e-04 0.0000000000000000e+00  3.6062435248575605e-03 -2.4252841901211739e-04 0.0000000000000000e+00  3.5791721782588068e-03 -7.4239803924414192e-04 0.0000000000000000e+00  2.6279306723015873e-03 -5.3475780732314905e-04 0.0000000000000000e+00  1.7262773237883841e-03 -3.4622112556237768e-04 0.0000000000000000e+00  8.5567747950634251e-04 -1.7006802223273039e-04 0.0000000000000000e+00  0.0000000000000000e+00 0.0000000000000000e+00 0.0000000000000000e+00  0.0000000000000000e+00 0.0000000000000000e+00 0.0000000000000000e+00  -9.1043288409071435e-04 -1.0994530278825792e-04 0.0000000000000000e+00  -1.8447790056150722e-03 -2.2293409735519340e-04 0.0000000000000000e+00  -2.8281711372009255e-03 -3.4195763024888904e-04 0.0000000000000000e+00  -3.8881917779340957e-03 -4.6988301903255324e-04 0.0000000000000000e+00  -3.9341684174496764e-03 -2.1483234489176568e-04 0.0000000000000000e+00  -3.8875070478893489e-03 3.9593997990535967e-05 0.0000000000000000e+00  -2.4400916877075824e-03 1.2468973277210116e-05 0.0000000000000000e+00  -1.0621770136694055e-03 -1.7102309144012840e-06 0.0000000000000000e+00  2.8218887877516993e-04 -2.9481616852777622e-06 0.0000000000000000e+00  1.6272420106877670e-03 8.7021583294185717e-06 0.0000000000000000e+00  3.0071725735191677e-03 3.3157747954708038e-05 0.0000000000000000e+00  4.4577858309174214e-03 7.0239332068478010e-05 0.0000000000000000e+00  4.5064951230051557e-03 -2.5448736297271717e-04 0.0000000000000000e+00  4.4614617073955995e-03 -5.7862158929971946e-04 0.0000000000000000e+00  3.2573398979735568e-03 -4.2105400699916738e-04 0.0000000000000000e+00  2.1305204492044314e-03 -2.7452796111050200e-04 0.0000000000000000e+00  1.0531939943635433e-03 -1.3540847720194167e-04 0.0000000000000000e+00  0.0000000000000000e+00 0.0000000000000000e+00 0.0000000000000000e+00  0.0000000000000000e+00 0.0000000000000000e+00 0.0000000000000000e+00  -9.7806447564656191e-04 -6.0204488738426826e-05 0.0000000000000000e+00  -1.9838612906530302e-03 -1.2119287342146815e-04 0.0000000000000000e+00  -3.0461812983585842e-03 -1.8366030480481787e-04 0.0000000000000000e+00  -4.1959373133016375e-03 -2.4812351031145406e-04 0.0000000000000000e+00  -4.2484585424917842e-03 -2.1701778642767706e-04 0.0000000000000000e+00  -4.1945536131959057e-03 -1.8654895788343300e-04 0.0000000000000000e+00  -2.6154562183733315e-03 -1.9312132716286628e-04 0.0000000000000000e+00  -1.1149118718761569e-03 -1.9578776749308767e-04 0.0000000000000000e+00  3.4786293882383838e-04 -1.9421709000059145e-04 0.0000000000000000e+00  1.8122198759714704e-03 -1.8835529084092344e-04 0.0000000000000000e+00  3.3175264953912154e-03 -1.7841496179004930e-04 0.0000000000000000e+00  4.9046238214192541e-03 -1.6489995187530282e-04 0.0000000000000000e+00  4.9601737349770350e-03 -2.6109017149360318e-04 0.0000000000000000e+00  4.9064610224730954e-03 -3.5691606964207909e-04 0.0000000000000000e+00  3.5763948890859040e-03 -2.6315826469936311e-04 0.0000000000000000e+00  2.3360810916875012e-03 -1.7319661582378183e-04 0.0000000000000000e+00  1.1538018360833042e-03 -8.5908645271475377e-05 0.0000000000000000e+00  -2.8586597337746163e-11 -1.8442909801645924e-12 0.0000000000000000e+00  0.0000000000000000e+00 0.0000000000000000e+00 0.0000000000000000e+00  -9.3451674735884141e-04 -7.3321895496489009e-06 0.0000000000000000e+00  -1.8963152905377054e-03 -1.3534577809319923e-05 0.0000000000000000e+00  -2.9135464905294438e-03 -1.7375447773215410e-05 0.0000000000000000e+00  -4.0160819674637397e-03 -1.7416966423824980e-05 0.0000000000000000e+00  -4.0673315145412989e-03 -2.2121967228005108e-04 0.0000000000000000e+00  -4.0145923070117936e-03 -4.2566677887403395e-04 0.0000000000000000e+00  -2.4777240984443648e-03 -4.1428669890865706e-04 0.0000000000000000e+00  -1.0170844854979907e-03 -4.0675954995202714e-04 0.0000000000000000e+00  4.0722766975862434e-04 -4.0259508712390673e-04 0.0000000000000000e+00  1.8339549826867209e-03 -4.0167409674435025e-04 0.0000000000000000e+00  3.3018776982791688e-03 -4.0424085023955004e-04 0.0000000000000000e+00  4.8510127850048372e-03 -4.1090962070423648e-04 0.0000000000000000e+00  4.9052007931570532e-03 -2.6388275019401065e-04 0.0000000000000000e+00  4.8508205086759335e-03 -1.1669874142986328e-04 0.0000000000000000e+00  3.5353392016162512e-03 -9.0083493330723601e-05 0.0000000000000000e+00  2.3088369209913850e-03 -6.1176183805725467e-05 0.0000000000000000e+00  1.1401781178972123e-03 -3.0904376965148415e-05 0.0000000000000000e+00  0.0000000000000000e+00 0.0000000000000000e+00 0.0000000000000000e+00  0.0000000000000000e+00 0.0000000000000000e+00 0.0000000000000000e+00  -7.8157822944224808e-04 4.1023061107828280e-05 0.0000000000000000e+00  -1.5864817275913024e-03 8.4680920011547708e-05 0.0000000000000000e+00  -2.4387661738377760e-03 1.3371535347898031e-04 0.0000000000000000e+00  -3.3636697312687085e-03 1.9108581195237314e-04 0.0000000000000000e+00  -3.4074294676710816e-03 -2.2711696706769171e-04 0.0000000000000000e+00  -3.3624884092654816e-03 -6.4589225102245989e-04 0.0000000000000000e+00  -2.0361743478847409e-03 -6.2008556524135886e-04 0.0000000000000000e+00  -7.7444829400048071e-04 -6.0432206286366427e-04 0.0000000000000000e+00  4.5696940792742290e-04 -5.9803981999198823e-04 0.0000000000000000e+00  1.6914893575267745e-03 -6.0108428317392462e-04 0.0000000000000000e+00  2.9625703042977609e-03 -6.1370576488394902e-04 0.0000000000000000e+00  4.3046376149181737e-03 -6.3656199472919388e-04 0.0000000000000000e+00  4.3508464069793341e-03 -2.6358091733864924e-04 0.0000000000000000e+00  4.3024661655053364e-03 1.0944179366210751e-04 0.0000000000000000e+00  3.1373195466524498e-03 7.3812244840895175e-05 0.0000000000000000e+00  2.0495929930598603e-03 4.5377547405990616e-05 0.0000000000000000e+00  1.0123463890883231e-03 2.1560848717218802e-05 0.0000000000000000e+00  0.0000000000000000e+00 0.0000000000000000e+00 0.0000000000000000e+00  0.0000000000000000e+00 0.0000000000000000e+00 0.0000000000000000e+00  -5.3500178616718442e-04 7.8846858870421733e-05 0.0000000000000000e+00  -1.0867444472768199e-03 1.6139820168899126e-04 0.0000000000000000e+00  -1.6724340427273323e-03 2.5146853304620079e-04 0.0000000000000000e+00  -2.3100947708740091e-03 3.5309649965743485e-04 0.0000000000000000e+00  -2.3416297480168134e-03 -2.3428979306354929e-04 0.0000000000000000e+00  -2.3095338247715769e-03 -8.2215107957939431e-04 0.0000000000000000e+00  -1.3373412996127406e-03 -7.8581559612432301e-04 0.0000000000000000e+00  -4.1106113050842839e-04 -7.6406117231656652e-04 0.0000000000000000e+00  4.9435161638646452e-04 -7.5627918578186136e-04 0.0000000000000000e+00  1.4033670992393168e-03 -7.6228905913183938e-04 0.0000000000000000e+00  2.3405081122629054e-03 -7.8233726943176274e-04 0.0000000000000000e+00  3.3309778889456989e-03 -8.1709835332371169e-04 0.0000000000000000e+00  3.3641951028029102e-03 -2.6092550955088295e-04 0.0000000000000000e+00  3.3269430043362043e-03 2.9518162347065075e-04 0.0000000000000000e+00  2.4285948900966128e-03 2.0892222394838997e-04 0.0000000000000000e+00  1.5878096767359389e-03 1.3345688414786490e-04 0.0000000000000000e+00  7.8462372247285999e-04 6.5002840113567375e-05 0.0000000000000000e+00  0.0000000000000000e+00 0.0000000000000000e+00 0.0000000000000000e+00  0.0000000000000000e+00 0.0000000000000000e+00 0.0000000000000000e+00  -2.2109864918747236e-04 1.0186122757380845e-04 0.0000000000000000e+00  -4.5056093299531666e-04 2.0804802793998866e-04 0.0000000000000000e+00  -6.9699665851913643e-04 3.2299851105486267e-04 0.0000000000000000e+00  -9.6944372764892566e-04 4.5137759889080596e-04 0.0000000000000000e+00  -9.8555546701660610e-04 -2.4216075679812709e-04 0.0000000000000000e+00  -9.6967694703397548e-04 -9.3604071988384998e-04 0.0000000000000000e+00  -4.5591084203650364e-04 -8.9333165481319057e-04 0.0000000000000000e+00  3.5318534426363816e-05 -8.6802059542891716e-04 0.0000000000000000e+00  5.1736971705440549e-04 -8.5946134250952839e-04 0.0000000000000000e+00  1.0033195906691303e-03 -8.6745186939258330e-04 0.0000000000000000e+00  1.5062990155363556e-03 -8.9223087896141791e-04 0.0000000000000000e+00  2.0398234238297379e-03 -9.3447854747939470e-04 0.0000000000000000e+00  2.0567084981411347e-03 -2.5653563991914345e-04 0.0000000000000000e+00  2.03