<?xml version="1.0"?>
<VTKFile type="UnstructuredGrid"  version="0.1"  >
<UnstructuredGrid>
<Piece  NumberOfPoints="589" NumberOfCells="1080">
<Points>
<DataArray  type="Float64"  NumberOfComponents="3"  format="ascii">-9 0 0  -8 0 0  -7 0 0  -6 0 0  -5 0 0  -4 0 0  -3 0 0  -2 0 0  -1 0 0  0 0 0  1 0 0  2 0 0  3 0 0  4 0 0  5 0 0  6 0 0  7 0 0  8 0 0  9 0 0  -9 2 0  -8.000007451627912 1.999988952572233 0  -7.000015631251873 1.999979251081824 0  -6.000026239643383 1.999971986574893 0  -5.000043155710087 1.999967631950916 0  -4.000025756705497 1.999975868284385 0  -3.000007834721671 1.999983591704981 0  -1.999999033159666 1.999990802816228 0  -0.9999974350572887 1.999996501583074 0  -3.377968565100485e-07 1.999999009890495 0  0.9999964242614471 1.999997309366645 0  1.999996891006405 1.999991820004612 0  3.000003775546036 1.999985089659437 0  4.00001791269942 1.999977907483452 0  5.000038337584742 1.99997504967968 0  6.000023102640204 1.999976082944053 0  7.000013724460847 1.999981548995828 0  8.000006549276176 1.999990011476956 0  9 2 0  -9 4 0  -8.000011991103982 3.999972522087952 0  -7.000021547459392 3.999948754747726 0  -6.000027248499991 3.999932333899046 0  -5.000029393147971 3.999926729509244 0  -4.00000416644932 3.999930571143056 0  -2.999987176079912 3.999952200366997 0  -1.999982586918636 3.999980337256362 0  -0.9999887596173926 4.000002967083395 0  -7.979321250084772e-07 4.000012117346187 0  0.9999868950623256 4.000005076304005 0  1.999979813607692 3.999985968025546 0  2.999983449510493 3.999960101954292 0  3.999999464154689 3.999934140372617 0  5.000023831899614 3.999925602000845 0  6.0000227780575 3.999934435187154 0  7.000018636759345 3.999951113007 0  8.000010594631199 3.999973919547148 0  9 4 0  -9 6 0  -8.000026268708677 5.999941252688064 0  -7.000042884864 5.999888875560856 0  -6.000042482955239 5.999849418373871 0  -5.000022950759696 5.999829161818346 0  -3.999973898536651 5.999861202465819 0  -2.999951504944359 5.999928048207898 0  -1.99996012251498 5.999998095487852 0  -0.9999818437198554 6.000037037890314 0  -3.809258949277424e-06 6.000044896735113 0  0.9999764871007 6.000032349749084 0  1.999961535780939 5.999997604498839 0  2.999956040484626 5.999938911658803 0  3.999967717226559 5.99987809655485 0  5.000009451142319 5.999848103498156 0  6.00003480326329 5.99986141175697 0  7.000039151479082 5.999896165424491 0  8.00002484867402 5.999944735093238 0  9 6 0  -9 8 0  -8.000079146747815 7.999884518048005 0  -7.000132288654428 7.999777333273959 0  -6.000134235184741 7.999689716747318 0  -5.000063423514353 7.999640249716887 0  -3.99996869562165 7.999787934939981 0  -2.999986057663699 7.999961419223389 0  -2.000021489947942 8.000045930767572 0  -1.000024407758616 8.000055536213134 0  -3.146421832069427e-06 8.000058324362938 0  1.000012833647187 8.000066790006782 0  2.000006528192341 8.000031655755533 0  2.99996570087039 7.999971795308033 0  3.99995207295576 7.999823485707797 0  5.000044960692293 7.999656135254472 0  6.00013083228102 7.99970262951684 0  7.000134256734724 7.999785971286537 0  8.0000812745786 7.999888782876163 0  9 8 0  -9 10 0  -8.00023596604181 9.999794657647744 0  -7.000426390271874 9.99958761564128 0  -6.000516940544409 9.99937757779753 0  -5.000431928404335 9.999164207951605 0  -4.000281846950404 9.999640837245209 0  -3.00030626877799 10.00005062678272 0  -2.000245182286512 9.999979974267493 0  -1.00011316711216 9.999957302303187 0  -1.592730884714565e-05 9.999951773111952 0  1.000080484946532 9.99995221011334 0  2.000208678859958 9.999949691590688 0  3.000321782816493 10.0000965724803 0  4.000308000755468 9.999709220715403 0  5.00047798065065 9.999198122130537 0  6.000556483262883 9.999396585692834 0  7.000454883426581 9.999597969643238 0  8.000250801503528 9.99979925401705 0  9 10 0  -9 12 0  -8.000574590831029 11.99971173020742 0  -7.001119397234629 11.9994101079658 0  -6.001600754025071 11.99907916201039 0  -5.0019768978232 11.99869661748673 0  -4.001900312389274 11.99956542462693 0  -3.001969688565808 12.00042556686525 0  -2.001353282341666 12.00032122291046 0  -1.000667827061073 12.0002645977515 0  4.379153721958365e-05 12.00025326990439 0  1.000762558056129 12.00028900329882 0  2.001472490869357 12.00038224447341 0  3.002141811848478 12.00055917521692 0  4.002068365964919 11.99963023222447 0  5.002117114393222 11.99869361863941 0  6.001701725681817 11.99907915553345 0  7.001185028949984 11.99941054769193 0  8.000606956172723 11.9997119911306 0  9 12 0  -9 14 0  -8.001031606824759 13.99968236440878 0  -7.002065007767273 13.999350157928 0  -6.003103375682734 13.99898752421533 0  -5.004153417655622 13.99857608628293 0  -4.00416440336072 13.99959131715898 0  -3.004170675157084 14.00061941199159 0  -2.002738987254733 14.00047187668553 0  -1.001327758936396 14.00039095147755 0  7.509141310383856e-05 14.0003667490192 0  1.001481057840497 14.0003960442524 0  2.002900824255411 14.00048044067618 0  3.004342857898922 14.00062453569304 0  4.004354336032463 13.99959364882664 0  5.004360430570319 13.9985691865563 0  6.003250403433741 13.99897889207713 0  7.002159626781671 13.99934327197157 0  8.001077988614218 13.99967865887033 0  9 14 0  -9 16 0  -8.001480428061065 15.99971138316036 0  -7.00298907341668 15.99941213055646 0  -6.004556602032769 15.99909142462778 0  -5.006218676835234 15.99873825651427 0  -4.006277895724269 15.99960429823225 0  -3.006222158277524 16.00046574524437 0  -2.004045489503565 16.00035690758246 0  -1.001955334985911 16.00029107258446 0  9.396930648869049e-05 16.00026683172339 0  1.002145581644669 16.00028326559684 0  2.004242674970626 16.00034042603932 0  3.006431189083631 16.00043911702899 0  4.00649392909297 15.99956674524745 0  5.006439071799429 15.99869371089411 0  6.004719044029636 15.99906033017621 0  7.003095831620799 15.99939224763074 0  8.001533325754892 15.99970165673061 0  9 16 0  -9 18 0  -8.001815305295267 17.99978297124522 0  -7.003675683633164 17.99956002230084 0  -6.005628553107674 17.99932534435622 0  -5.007725996706064 17.99907337554524 0  -4.007815292125289 17.99960728945565 0  -3.007729409696011 18.00014051649012 0  -2.005009308265949 18.00007059562144 0  -1.002421089409784 18.00002551212667 0  0.0001035528883159748 18.00000490248306 0  1.002629612683643 18.0000082521728 0  2.005221991467211 18.00003493171429 0  3.007948675565278 18.00008406768631 0  4.008039670731748 17.99954667938788 0  5.007953015426258 17.99901088270608 0  6.005796959772912 17.99928083066641 0  7.00378703557329 17.99953141358768 0  8.00187070033644 17.99976897491096 0  9 18 0  -9 20 0  -8.001968896460836 19.99987822313422 0  -7.00399036296377 19.99975485537799 0  -6.006118974172512 19.99962848496835 0  -5.00841331271957 19.9994980517747 0  -4.008515117784496 19.99960736142613 0  -3.00841474993137 19.99971590728698 0  -2.005449395513953 19.99968542624055 0  -1.00263434271678 19.99966256486291 0  0.0001073907839660899 19.99964764256245 0  1.002850002098258 19.99964040900743 0  2.005667651875089 19.99964006418837 0  3.008637223385897 19.99964520965852 0  4.008739568929125 19.99953671079335 0  5.008638582926218 19.99942929526062 0  6.006286791188361 19.99957886217678 0  7.004101690954349 19.99972269852479 0  8.002024393496269 19.99986242185162 0  8.999999999991324 19.9999999999934 0  -9 22 0  -8.001911289351266 21.99997981924434 0  -7.003874509627246 21.99996169407954 0  -6.005943216043963 21.99994787948465 0  -5.008174197676586 21.99994103308686 0  -4.008273820541274 21.99960336875501 0  -3.008175152219799 21.99926484708865 0  -2.005292123045706 21.99926994062781 0  -1.002556132174785 21.99926803930042 0  0.0001077122365105297 21.99925980565827 0  1.002772037615678 21.99924517485253 0  2.005509449497141 21.9992233684979 0  3.00839477627514 21.99919288144224 0  4.008493087508537 21.99953351642176 0  5.008392487442646 21.99987475802016 0  6.006106444419983 21.99989980338257 0  7.003983080677091 21.99993041507604 0  8.00196549498272 21.99996441121269 0  9 22 0  -9 24 0  -8.001645015906893 24.00007319331105 0  -7.003334716476058 24.00015128892955 0  -6.005115038397623 24.00023939264958 0  -5.007034337722131 24.00034303008551 0  -4.007120227737303 23.99959556453937 0  -3.007035924444395 23.99884732207235 0  -2.004550428896569 23.9988822840955 0  -1.002191057619437 23.99889870109207 0  0.0001061990922508882 23.99889741393079 0  1.002403636510491 23.99887848845093 0  2.004763534699153 23.99884121884907 0  3.00724985911005 23.99878412257434 0  4.007331932264986 23.99953530841139 0  5.007243765612109 24.00028683043652 0  6.005272102559049 24.00019845555489 0  7.003439407990336 24.00012457533001 0  8.001697348324313 24.00006001022169 0  9 24 0  -9 26 0  -8.001198929518756 26.00014697712732 0  -7.002430323328177 26.00030086225271 0  -6.003727528167509 26.00046876845305 0  -5.005125486021413 26.00065823332065 0  -4.005188867259894 25.99958448816992 0  -3.005128449616739 25.99851013773537 0  -2.003307832156999 25.9985684699251 0  -1.001579153249507 25.99859984171278 0  0.0001041166552006957 25.99860523311008 0  1.001787342898659 25.99858482652762 0  2.003515876149252 25.99853800753883 0  3.005336203189347 25.99846336312247 0  4.005393047008657 25.99954043767174 0  5.005326451570024 26.0006176483652 0  6.003878629936108 26.00043912828217 0  7.002531221806636 26.00028148239013 0  8.001249419805774 26.00013740107732 0  9 26 0  -9 28 0  -8.000621741434061 28.00019315085107 0  -7.001260415829469 28.00039436388341 0  -6.001933456631233 28.00061190854187 0  -5.002659064203989 28.00085447532 0  -4.002693945744987 27.99957118075469 0  -3.002663657975837 27.99828756612378 0  -2.001700999975603 27.9983621426534 0  -1.000787206193537 27.99840454370009 0  0.0001023658351503887 27.9984158766432 0  1.000991743026312 27.99839643690798 0  2.001904934740342 27.99834570805391 0  3.002866531452256 27.99826236072575 0  4.002892434412823 27.99954774842962 0  5.002853786990428 28.00083318779838 0  6.002080145776895 28.0005963285843 0  7.001358502303065 28.00038416034563 0  8.00067086680847 28.00018810324725
[...]
<PointData  Vectors="f_42"> 
<DataArray  type="Float64"  Name="f_42"  NumberOfComponents="3" format="ascii">0.0000000000000000e+00 0.0000000000000000e+00 0.0000000000000000e+00  0.0000000000000000e+00 0.0000000000000000e+00 0.0000000000000000e+00  0.0000000000000000e+00 0.0000000000000000e+00 0.0000000000000000e+00  0.0000000000000000e+00 0.0000000000000000e+00 0.0000000000000000e+00  0.0000000000000000e+00 0.0000000000000000e+00 0.0000000000000000e+00  0.0000000000000000e+00 0.0000000000000000e+00 0.0000000000000000e+00  0.0000000000000000e+00 0.0000000000000000e+00 0.0000000000000000e+00  0.0000000000000000e+00 0.0000000000000000e+00 0.0000000000000000e+00  0.0000000000000000e+00 0.0000000000000000e+00 0.0000000000000000e+00  0.0000000000000000e+00 0.0000000000000000e+00 0.0000000000000000e+00  0.0000000000000000e+00 0.0000000000000000e+00 0.0000000000000000e+00  0.0000000000000000e+00 0.0000000000000000e+00 0.0000000000000000e+00  0.0000000000000000e+00 0.0000000000000000e+00 0.0000000000000000e+00  0.0000000000000000e+00 0.0000000000000000e+00 0.0000000000000000e+00  0.0000000000000000e+00 0.0000000000000000e+00 0.0000000000000000e+00  0.0000000000000000e+00 0.0000000000000000e+00 0.0000000000000000e+00  0.0000000000000000e+00 0.0000000000000000e+00 0.0000000000000000e+00  0.0000000000000000e+00 0.0000000000000000e+00 0.0000000000000000e+00  0.0000000000000000e+00 0.0000000000000000e+00 0.0000000000000000e+00  0.0000000000000000e+00 0.0000000000000000e+00 0.0000000000000000e+00  -7.4516279208616193e-06 -1.1047427766469313e-05 0.0000000000000000e+00  -1.5631251871318842e-05 -2.0748918175703947e-05 0.0000000000000000e+00  -2.6239643382504591e-05 -2.8013425106813982e-05 0.0000000000000000e+00  -4.3155710090055525e-05 -3.2368049085414585e-05 0.0000000000000000e+00  -2.5756705497851306e-05 -2.4131715614972546e-05 0.0000000000000000e+00  -7.8347216737164712e-06 -1.6408295018355966e-05 0.0000000000000000e+00  9.6684033505677333e-07 -9.1971837722713637e-06 0.0000000000000000e+00  2.5649427109541821e-06 -3.4984169258937181e-06 0.0000000000000000e+00  -3.3779685651004851e-07 -9.9010950485640983e-07 0.0000000000000000e+00  -3.5757385522817668e-06 -2.6906333541221394e-06 0.0000000000000000e+00  -3.1089935967495961e-06 -8.1799953869181037e-06 0.0000000000000000e+00  3.7755460377258239e-06 -1.4910340564230640e-05 0.0000000000000000e+00  1.7912699420860330e-05 -2.2092516548279341e-05 0.0000000000000000e+00  3.8337584741445018e-05 -2.4950320319857156e-05 0.0000000000000000e+00  2.3102640200210055e-05 -2.3917055947149706e-05 0.0000000000000000e+00  1.3724460846428728e-05 -1.8451004173048449e-05 0.0000000000000000e+00  6.5492761700310377e-06 -9.9885230445136335e-06 0.0000000000000000e+00  0.0000000000000000e+00 0.0000000000000000e+00 0.0000000000000000e+00  0.0000000000000000e+00 0.0000000000000000e+00 0.0000000000000000e+00  -1.1991103978614965e-05 -2.7477912050194057e-05 0.0000000000000000e+00  -2.1547459383760865e-05 -5.1245252275593212e-05 0.0000000000000000e+00  -2.7248499989853957e-05 -6.7666100956122150e-05 0.0000000000000000e+00  -2.9393147975498748e-05 -7.3270490755271471e-05 0.0000000000000000e+00  -4.1664493208939821e-06 -6.9428856943307547e-05 0.0000000000000000e+00  1.2823920087819628e-05 -4.7799633000386687e-05 0.0000000000000000e+00  1.7413081362969287e-05 -1.9662743638802306e-05 0.0000000000000000e+00  1.1240382607177693e-05 2.9670833963893165e-06 0.0000000000000000e+00  -7.9793212500847719e-07 1.2117346185824925e-05 0.0000000000000000e+00  -1.3104937674646357e-05 5.0763040085903499e-06 0.0000000000000000e+00  -2.0186392307762705e-05 -1.4031974454339500e-05 0.0000000000000000e+00  -1.6550489502967558e-05 -3.9898045707649657e-05 0.0000000000000000e+00  -5.3584531366794918e-07 -6.5859627383896049e-05 0.0000000000000000e+00  2.3831899606106465e-05 -7.4397999153973695e-05 0.0000000000000000e+00  2.2778057494791162e-05 -6.5564812845025187e-05 0.0000000000000000e+00  1.8636759343972211e-05 -4.8886992998759485e-05 0.0000000000000000e+00  1.0594631212650871e-05 -2.6080452852769987e-05 0.0000000000000000e+00  0.0000000000000000e+00 0.0000000000000000e+00 0.0000000000000000e+00  0.0000000000000000e+00 0.0000000000000000e+00 0.0000000000000000e+00  -2.6268708678247650e-05 -5.8747311938703341e-05 0.0000000000000000e+00  -4.2884863999923843e-05 -1.1112443914373075e-04 0.0000000000000000e+00  -4.2482955243345528e-05 -1.5058162612862250e-04 0.0000000000000000e+00  -2.2950759695298831e-05 -1.7083818165077795e-04 0.0000000000000000e+00  2.6101463349790261e-05 -1.3879753417621598e-04 0.0000000000000000e+00  4.8495055640157679e-05 -7.1951792098037337e-05 0.0000000000000000e+00  3.9877485020618969e-05 -1.9045121492839634e-06 0.0000000000000000e+00  1.8156280144989946e-05 3.7037890315077180e-05 0.0000000000000000e+00  -3.8092589492774238e-06 4.4896735111169031e-05 0.0000000000000000e+00  -2.3512899300280804e-05 3.2349749085763164e-05 0.0000000000000000e+00  -3.8464219059800142e-05 -2.3955011648093308e-06 0.0000000000000000e+00  -4.3959515374725241e-05 -6.1088341191466134e-05 0.0000000000000000e+00  -3.2282773442208304e-05 -1.2190344514867408e-04 0.0000000000000000e+00  9.4511423196124073e-06 -1.5189650184752767e-04 0.0000000000000000e+00  3.4803263283386695e-05 -1.3858824302579668e-04 0.0000000000000000e+00  3.9151479080504975e-05 -1.0383457550911146e-04 0.0000000000000000e+00  2.4848674018543361e-05 -5.5264906761661801e-05 0.0000000000000000e+00  0.0000000000000000e+00 0.0000000000000000e+00 0.0000000000000000e+00  0.0000000000000000e+00 0.0000000000000000e+00 0.0000000000000000e+00  -7.9146747823523244e-05 -1.1548195199302005e-04 0.0000000000000000e+00  -1.3228865442905751e-04 -2.2266672604384210e-04 0.0000000000000000e+00  -1.3423518474526644e-04 -3.1028325268712904e-04 0.0000000000000000e+00  -6.3423514354569725e-05 -3.5975028310580967e-04 0.0000000000000000e+00  3.1304378350649934e-05 -2.1206506001566653e-04 0.0000000000000000e+00  1.3942336298714975e-05 -3.8580776611215806e-05 0.0000000000000000e+00  -2.1489947941096326e-05 4.5930767573805286e-05 0.0000000000000000e+00  -2.4407758616350875e-05 5.5536213135903564e-05 0.0000000000000000e+00  -3.1464218320694267e-06 5.8324362939198686e-05 0.0000000000000000e+00  1.2833647187983906e-05 6.6790006780171926e-05 0.0000000000000000e+00  6.5281923393858166e-06 3.1655755531703906e-05 0.0000000000000000e+00  -3.4299129611610708e-05 -2.8204691963251292e-05 0.0000000000000000e+00  -4.7927044240618070e-05 -1.7651429220254050e-04 0.0000000000000000e+00  4.4960692289171623e-05 -3.4386474553164888e-04 0.0000000000000000e+00  1.3083228102413674e-04 -2.9737048315879957e-04 0.0000000000000000e+00  1.3425673472245372e-04 -2.1402871347079981e-04 0.0000000000000000e+00  8.1274578594323381e-05 -1.1121712383553470e-04 0.0000000000000000e+00  0.0000000000000000e+00 0.0000000000000000e+00 0.0000000000000000e+00  0.0000000000000000e+00 0.0000000000000000e+00 0.0000000000000000e+00  -2.3596604181226393e-04 -2.0534235225374065e-04 0.0000000000000000e+00  -4.2639027187174703e-04 -4.1238435871820408e-04 0.0000000000000000e+00  -5.1694054440758533e-04 -6.2242220246542450e-04 0.0000000000000000e+00  -4.3192840433682340e-04 -8.3579204839773940e-04 0.0000000000000000e+00  -2.8184695040102110e-04 -3.5916275478578260e-04 0.0000000000000000e+00  -3.0626877799254409e-04 5.0626782715204424e-05 0.0000000000000000e+00  -2.4518228651407569e-04 -2.0025732505620385e-05 0.0000000000000000e+00  -1.1316711216021813e-04 -4.2697696812129042e-05 0.0000000000000000e+00  -1.5927308847145651e-05 -4.8226888059583345e-05 0.0000000000000000e+00  8.0484946534084589e-05 -4.7789886659871690e-05 0.0000000000000000e+00  2.0867885995801526e-04 -5.0308409319776458e-05 0.0000000000000000e+00  3.2178281649414438e-04 9.6572480296321442e-05 0.0000000000000000e+00  3.0800075547373745e-04 -2.9077928459873777e-04 0.0000000000000000e+00  4.7798065065415737e-04 -8.0187786946753149e-04 0.0000000000000000e+00  5.5648326288799954e-04 -6.0341430716566577e-04 0.0000000000000000e+00  4.5488342657951862e-04 -4.0203035676070556e-04 0.0000000000000000e+00  2.5080150352431820e-04 -2.0074598295059196e-04 0.0000000000000000e+00  0.0000000000000000e+00 0.0000000000000000e+00 0.0000000000000000e+00  0.0000000000000000e+00 0.0000000000000000e+00 0.0000000000000000e+00  -5.7459083103115268e-04 -2.8826979257368378e-04 0.0000000000000000e+00  -1.1193972346290955e-03 -5.8989203420382159e-04 0.0000000000000000e+00  -1.6007540250695897e-03 -9.2083798960382269e-04 0.0000000000000000e+00  -1.9768978232015269e-03 -1.3033825132640932e-03 0.0000000000000000e+00  -1.9003123892743887e-03 -4.3457537307143283e-04 0.0000000000000000e+00  -1.9696885658088848e-03 4.2556686525269994e-04 0.0000000000000000e+00  -1.3532823416660383e-03 3.2122291046595948e-04 0.0000000000000000e+00  -6.6782706107204332e-04 2.6459775150066073e-04 0.0000000000000000e+00  4.3791537219583646e-05 2.5326990439375241e-04 0.0000000000000000e+00  7.6255805612907566e-04 2.8900329881655952e-04 0.0000000000000000e+00  1.4724908693554588e-03 3.8224447340906147e-04 0.0000000000000000e+00  2.1418118484770174e-03 5.5917521690811015e-04 0.0000000000000000e+00  2.0683659649210046e-03 -3.6976777552067671e-04 0.0000000000000000e+00  2.1171143932161994e-03 -1.3063813605787358e-03 0.0000000000000000e+00  1.7017256818157194e-03 -9.2084446655098001e-04 0.0000000000000000e+00  1.1850289499900318e-03 -5.8945230807436156e-04 0.0000000000000000e+00  6.0695617272449385e-04 -2.8800886940378277e-04 0.0000000000000000e+00  0.0000000000000000e+00 0.0000000000000000e+00 0.0000000000000000e+00  0.0000000000000000e+00 0.0000000000000000e+00 0.0000000000000000e+00  -1.0316068247656963e-03 -3.1763559122047078e-04 0.0000000000000000e+00  -2.0650077672741307e-03 -6.4984207199772297e-04 0.0000000000000000e+00  -3.1033756827357644e-03 -1.0124757846686594e-03 0.0000000000000000e+00  -4.1534176556249271e-03 -1.4239137170681745e-03 0.0000000000000000e+00  -4.1644033607215226e-03 -4.0868284100695207e-04 0.0000000000000000e+00  -4.1706751570822339e-03 6.1941199159718972e-04 0.0000000000000000e+00  -2.7389872547332436e-03 4.7187668551363743e-04 0.0000000000000000e+00  -1.3277589363949577e-03 3.9095147753897777e-04 0.0000000000000000e+00  7.5091413103838561e-05 3.6674901919915673e-04 0.0000000000000000e+00  1.4810578404961842e-03 3.9604425240253064e-04 0.0000000000000000e+00  2.9008242554115441e-03 4.8044067617269363e-04 0.0000000000000000e+00  4.3428578989233311e-03 6.2453569303483770e-04 0.0000000000000000e+00  4.3543360324607401e-03 -4.0635117337071936e-04 0.0000000000000000e+00  4.3604305703210415e-03 -1.4308134436971185e-03 0.0000000000000000e+00  3.2504034337389981e-03 -1.0211079228708657e-03 0.0000000000000000e+00  2.1596267816712399e-03 -6.5672802844096343e-04 0.0000000000000000e+00  1.0779886142168519e-03 -3.2134112967502007e-04 0.0000000000000000e+00  0.0000000000000000e+00 0.0000000000000000e+00 0.0000000000000000e+00  0.0000000000000000e+00 0.0000000000000000e+00 0.0000000000000000e+00  -1.4804280610603454e-03 -2.8861683965540922e-04 0.0000000000000000e+00  -2.9890734166802559e-03 -5.8786944353736209e-04 0.0000000000000000e+00  -4.5566020327669479e-03 -9.0857537221670191e-04 0.0000000000000000e+00  -6.2186768352321588e-03 -1.2617434857405496e-03 0.0000000000000000e+00  -6.2778957242651005e-03 -3.9570176774170055e-04 0.0000000000000000e+00  -6.2221582775247516e-03 4.6574524435642186e-04 0.0000000000000000e+00  -4.0454895035633440e-03 3.5690758246415845e-04 0.0000000000000000e+00  -1.9553349859115074e-03 2.9107258445731715e-04 0.0000000000000000e+00  9.3969306488690487e-05 2.6683172339802668e-04 0.0000000000000000e+00  2.1455816446688323e-03 2.8326559684591031e-04 0.0000000000000000e+00  4.2426749706236562e-03 3.4042603932160918e-04 0.0000000000000000e+00  6.4311890836341217e-03 4.3911702898182610e-04 0.0000000000000000e+00  6.4939290929686023e-03 -4.3325475253912449e-04 0.0000000000000000e+00  6.4390717994316218e-03 -1.3062891058955326e-03 0.0000000000000000e+00  4.7190440296404146e-03 -9.3966982379135378e-04 0.0000000000000000e+00  3.0958316207981181e-03 -6.0775236926442018e-04 0.0000000000000000e+00  1.5333257548921066e-03 -2.9834326938495755e-04 0.0000000000000000e+00  0.0000000000000000e+00 0.0000000000000000e+00 0.0000000000000000e+00  0.0000000000000000e+00 0.0000000000000000e+00 0.0000000000000000e+00  -1.8153052952525743e-03 -2.1702875476534137e-04 0.0000000000000000e+00  -3.6756836331625544e-03 -4.3997769915392722e-04 0.0000000000000000e+00  -5.6285531076721001e-03 -6.7465564378647923e-04 0.0000000000000000e+00  -7.7259967060670613e-03 -9.2662445476111052e-04 0.0000000000000000e+00  -7.8152921252879377e-03 -3.9271054434582596e-04 0.0000000000000000e+00  -7.7294096960117348e-03 1.4051649013289803e-04 0.0000000000000000e+00  -5.0093082659479482e-03 7.0595621438590959e-05 0.0000000000000000e+00  -2.4210894097864205e-03 2.5512126664272223e-05 0.0000000000000000e+00  1.0355288831597482e-04 4.9024830437857320e-06 0.0000000000000000e+00  2.6296126836428545e-03 8.2521728054798847e-06 0.0000000000000000e+00  5.2219914672072517e-03 3.4931714283635103e-05 0.0000000000000000e+00  7.9486755652757694e-03 8.4067686284406413e-05 0.0000000000000000e+00  8.0396707317473871e-03 -4.5332061211998198e-04 0.0000000000000000e+00  7.9530154262586542e-03 -9.8911729392757441e-04 0.0000000000000000e+00  5.7969597729086884e-03 -7.1916933359686657e-04 0.0000000000000000e+00  3.7870355732965285e-03 -4.6858641231454498e-04 0.0000000000000000e+00  1.8707003364385332e-03 -2.3102508904596154e-04 0.0000000000000000e+00  0.0000000000000000e+00 0.0000000000000000e+00 0.0000000000000000e+00  0.0000000000000000e+00 0.0000000000000000e+00 0.0000000000000000e+00  -1.9688964608304228e-03 -1.2177686578320936e-04 0.0000000000000000e+00  -3.9903629637685276e-03 -2.4514462200042939e-04 0.0000000000000000e+00  -6.1189741725138393e-03 -3.7151503161879558e-04 0.0000000000000000e+00  -8.4133127195700607e-03 -5.0194822529009311e-04 0.0000000000000000e+00  -8.5151177844931831e-03 -3.9263857387086652e-04 0.0000000000000000e+00  -8.4147499313706013e-03 -2.8409271301307941e-04 0.0000000000000000e+00  -5.4493955139527581e-03 -3.1457375944060709e-04 0.0000000000000000e+00  -2.6343427167804297e-03 -3.3743513708893810e-04 0.0000000000000000e+00  1.0739078396608994e-04 -3.5235743753385856e-04 0.0000000000000000e+00  2.8500020982582903e-03 -3.5959099257762081e-04 0.0000000000000000e+00  5.6676518750921759e-03 -3.5993581165198399e-04 0.0000000000000000e+00  8.6372233858974471e-03 -3.5479034149737759e-04 0.0000000000000000e+00  8.7395689291250647e-03 -4.6328920666486369e-04 0.0000000000000000e+00  8.6385829262186995e-03 -5.7070473937840236e-04 0.0000000000000000e+00  6.2867911883594573e-03 -4.2113782322703572e-04 0.0000000000000000e+00  4.1016909543484031e-03 -2.7730147521447214e-04 0.0000000000000000e+00  2.0243934962522053e-03 -1.3757814838757999e-04 0.0000000000000000e+00  -8.6791602185286463e-12 -6.5946186798380934e-12 0.0000000000000000e+00  0.0000000000000000e+00 0.0000000000000000e+00 0.0000000000000000e+00  -1.9112893512597980e-03 -2.0180755665556672e-05 0.0000000000000000e+00  -3.8745096272498848e-03 -3.8305920462467402e-05 0.0000000000000000e+00  -5.9432160439622014e-03 -5.2120515332013928e-05 0.0000000000000000e+00  -8.1741976765840069e-03 -5.8966913142535447e-05 0.0000000000000000e+00  -8.2738205412752307e-03 -3.9663124496163024e-04 0.0000000000000000e+00  -8.1751522198021693e-03 -7.3515291134162671e-04 0.0000000000000000e+00  -5.2921230457039052e-03 -7.3005937217026013e-04 0.0000000000000000e+00  -2.5561321747854466e-03 -7.3196069957765343e-04 0.0000000000000000e+00  1.0771223651052965e-04 -7.4019434175587209e-04 0.0000000000000000e+00  2.7720376156780335e-03 -7.5482514748457976e-04 0.0000000000000000e+00  5.5094494971397430e-03 -7.7663150210647799e-04 0.0000000000000000e+00  8.3947762751401395e-03 -8.0711855776935404e-04 0.0000000000000000e+00  8.4930875085396321e-03 -4.6648357821135213e-04 0.0000000000000000e+00  8.3924874426454989e-03 -1.2524197985239454e-04 0.0000000000000000e+00  6.1064444199813257e-03 -1.0019661742265337e-04 0.0000000000000000e+00  3.9830806770872803e-03 -6.9584923940571258e-05 0.0000000000000000e+00  1.9654949827131404e-03 -3.5588787299841862e-05 0.0000000000000000e+00  0.0000000000000000e+00 0.0000000000000000e+00 0.0000000000000000e+00  0.0000000000000000e+00 0.0000000000000000e+00 0.0000000000000000e+00  -1.6450159068838537e-03 7.3193311049790283e-05 0.0000000000000000e+00  -3.3347164760602873e-03 1.5128892954428060e-04 0.0000000000000000e+00  -5.1150383976281280e-03 2.3939264958377964e-04 0.0000000000000000e+00  -7.0343377221262909e-03 3.4303008551278221e-04 0.0000000000000000e+00  -7.1202277373041325e-03 -4.0443546062284165e-04 0.0000000000000000e+00  -7.0359244443938661e-03 -1.1526779276542852e-03 0.0000000000000000e+00  -4.5504288965664821e-03 -1.1177159044891271e-03 0.0000000000000000e+00  -2.1910576194368661e-03 -1.1012989079277609e-03 0.0000000000000000e+00  1.0619909225088822e-04 -1.1025860692081572e-03 0.0000000000000000e+00  2.4036365104902722e-03 -1.1215115490690931e-03 0.0000000000000000e+00  4.7635346991545136e-03 -1.1587811509065243e-03 0.0000000000000000e+00  7.2498591100490298e-03 -1.2158774256629287e-03 0.0000000000000000e+00  7.3319322649825795e-03 -4.6469158861606169e-04 0.0000000000000000e+00  7.2437656121080553e-03 2.8683043651499734e-04 0.0000000000000000e+00  5.2721025590520146e-03 1.9845555491264250e-04 0.0000000000000000e+00  3.4394079903359407e-03 1.2457533000924512e-04 0.0000000000000000e+00  1.6973483243170986e-03 6.0010221714346226e-05 0.0000000000000000e+00  0.0000000000000000e+00 0.0000000000000000e+00 0.0000000000000000e+00  0.0000000000000000e+00 0.0000000000000000e+00 0.0000000000000000e+00  -1.1989295187569478e-03 1.4697712731183833e-04 0.0000000000000000e+00  -2.4303233281790138e-03 3.0086225271499850e-04 0.0000000000000000e+00  -3.7275281675097720e-03 4.6876845303558902e-04 0.0000000000000000e+00  -5.1254860214088689e-03 6.5823332064656142e-04 0.0000000000000000e+00  -5.1888672598939777e-03 -4.1551183006564759e-04 0.0000000000000000e+00  -5.1284496167358371e-03 -1.4898622646324373e-03 0.0000000000000000e+00  -3.3078321569999141e-03 -1.4315300748856225e-03 0.0000000000000000e+00  -1.5791532495058526e-03 -1.4001582872162394e-03 0.0000000000000000e+00  1.0411665520069573e-04 -1.3947668899095111e-03 0.0000000000000000e+00  1.7873428986590362e-03 -1.4151734723625332e-03 0.0000000000000000e+00  3.5158761492521777e-03 -1.4619924611894148e-03 0.0000000000000000e+00  5.3362031893457685e-03 -1.5366368775439709e-03 0.0000000000000000e+00  5.3930470086566758e-03 -4.5956232825581609e-04 0.0000000000000000e+00  5.3264515700209717e-03 6.1764836520639826e-04 0.0000000000000000e+00  3.8786299361108891e-03 4.3912828216576715e-04 0.0000000000000000e+00  2.5312218066349972e-03 2.8148239013339157e-04 0.0000000000000000e+00  1.2494198057728509e-03 1.3740107733993748e-04 0.0000000000000000e+00  0.0000000000000000e+00 0.0000000000000000e+00 0.0000000000000000e+00  0.0000000000000000e+00 0.0000000000000000e+00 0.0000000000000000e+00  -6.2174143405494117e-04 1.9315085108710832e-04 0.0000000000000000e+00  -1.2604158294686884e-03 3.9436388339849390e-04 0.0000000000000000e+00  -1.9334566312321053e-03 6.1190854187354829e-04 0.0000000000000000e+00  -2.6590642039897132e-03 8.5447532000012519e-04 0.0000000000000000e+00  -2.6939457449901868e-03 -4.2881924531716886e-04 0.0000000000000000e+00  -2.6636579758362940e-03 -1.7124338762429291e-03 0.0000000000000000e+00  -1.7009999756030729e-03 -1.6378573466192883e-03 0.0000000000000000e+00  -7.8720619353712983e-04 -1.5954562999155038e-03 0.0000000000000000e+00  1.0236583515038868e-04 -1.5841233568046416e-03 0.0000000000000000e+00  9.9174302631246697e-04 -1.6035630920079355e-03 0.0000000000000000e+00  1.9049347403434023e-03 -1.6542919460912956e-03 0.0000000000000000e+00  2.8665314522602547e-03 -1.7376392742633430e-03 0.0000000000000000e+00  2.8924344128213172e-03 -4.5225157038686960e-04 0.0000000000000000e+00 