<?xml version="1.0"?>
<VTKFile type="UnstructuredGrid"  version="0.1"  >
<UnstructuredGrid>
<Piece  NumberOfPoints="589" NumberOfCells="1080">
<Points>
<DataArray  type="Float64"  NumberOfComponents="3"  format="ascii">-9 0 0  -8 0 0  -7 0 0  -6 0 0  -5 0 0  -4 0 0  -3 0 0  -2 0 0  -1 0 0  0 0 0  1 0 0  2 0 0  3 0 0  4 0 0  5 0 0  6 0 0  7 0 0  8 0 0  9 0 0  -9 2 0  -8.000004269176516 1.999993108630142 0  -7.000009004994222 1.999987090282805 0  -6.000015291797175 1.999982657118856 0  -5.000025596177505 1.999980129920009 0  -4.000014809904976 1.999985031113899 0  -3.000003679615752 1.999989821149496 0  -1.999998284738342 1.999994372525842 0  -0.9999974679724087 1.999997956020178 0  5.139092529158242e-07 1.999999468967504 0  0.9999983758472127 1.999998217846034 0  1.999998786116588 1.999994439503847 0  3.000003575563046 1.999989758286937 0  4.000013406759354 1.99998456417725 0  5.000027802479592 1.999981844197127 0  6.000017081665961 1.999982934650665 0  7.00001026796404 1.999986968382695 0  8.000004924769474 1.99999298121836 0  9 2 0  -9.000000000004983 4 0  -8.000006671738364 3.999982725447597 0  -7.000011806075524 3.999967840035415 0  -6.000014513253695 3.999957690488935 0  -5.00001500791772 3.999954526516073 0  -3.999999017902352 3.999956616290237 0  -2.99998827257737 3.999970267133073 0  -1.999985497277962 3.999988149433456 0  -0.9999896436820934 4.000002515019498 0  2.451934288614564e-06 4.000008148699615 0  0.9999944387893007 4.000003151037636 0  1.999989953890578 3.999990119356378 0  2.999992660896131 3.999972434656052 0  4.000003696901928 3.999954341114927 0  5.000020346852333 3.999947230149848 0  6.000018534771582 3.999954096431519 0  7.000014653774967 3.99996602072456 0  8.000008175673152 3.999981939033836 0  9 4 0  -9 6 0  -8.000015223562558 5.999962787108912 0  -7.000024315781912 5.999929647633571 0  -6.000022584745559 5.999904782843942 0  -5.000008655131313 5.999892255340386 0  -3.999977133026475 5.999912343184869 0  -2.99996269739887 5.999954921156178 0  -1.999968102368087 5.999999701546912 0  -0.9999820512406193 6.000024726536942 0  3.646952882497902e-06 6.000029616647494 0  0.9999906526680536 6.000021018728682 0  1.999980744418477 5.999997508470863 0  2.999977221232426 5.999957832884321 0  3.999985234132181 5.999916419556243 0  5.000013195464093 5.999895144306363 0  6.000028263550267 5.9999050274894 0  7.000029427564884 5.999929098553374 0  8.000018216200884 5.999962327712547 0  9 6 0  -9 8 0  -8.000048296646364 7.999926561658055 0  -7.000080116013301 7.999858363572304 0  -6.000079448953121 7.999802533145994 0  -5.000032477560614 7.999770831399347 0  -3.999971661950132 7.999864658346985 0  -2.999981803744918 7.999975280389275 0  -2.000003758545924 8.000029802399558 0  -1.00000536557338 8.00003678496846 0  8.203857983008351e-06 8.000038934968092 0  1.000018106003837 8.000044412236798 0  2.000013461499595 8.000020395393392 0  2.999986220908936 7.999979586033409 0  3.999977090919398 7.999879859228128 0  5.000038812186221 7.999767526321317 0  6.000093603400392 7.999799217365032 0  7.000093696669647 7.999855552023518 0  8.000056270649491 7.999924950015688 0  9 8 0  -9 10 0  -8.000147246202163 9.999869401611313 0  -7.000265826502479 9.999737649786598 0  -6.000321495921339 9.99960383646949 0  -5.000266500234257 9.999467627181664 0  -4.000170552244309 9.999769379638874 0  -3.000184288687227 10.00002947544886 0  -2.000144510856416 9.999987165163377 0  -1.000060194739335 9.999973607037722 0  2.633413197005495e-06 9.999970288257551 0  1.000065405969842 9.999970290778185 0  2.000149531014822 9.999967680864264 0  3.000222819081285 10.00006346667951 0  4.000213119058174 9.999804127250574 0  5.000326979959594 9.999462570951028 0  6.000377659719602 9.999594891593143 0  7.00030799491187 9.999729785250981 0  8.000169671855915 9.999864985463653 0  9 10 0  -9 12 0  -8.000360708965141 11.99981691127143 0  -7.00070293447915 11.9996252762753 0  -6.001005727025966 11.99941488736448 0  -5.001243049461782 11.99917153594412 0  -4.001193846009245 11.99971955849721 0  -3.001235767952267 12.00026194596341 0  -2.000830101220834 12.00019964888418 0  -1.000381976942309 12.00016754686627 0  8.140962784985252e-05 12.00016428963797 0  1.000547625407791 12.00019128449645 0  2.00100566765541 12.00025558189366 0  3.001433527438344 12.0003745495468 0  4.001383991816737 11.99975121215926 0  5.00141878840814 11.99912260700781 0  6.001142718438513 11.99938041096083 0  7.000796737112613 11.99960287661059 0  8.000408351975864 11.99980581602053 0  9 12 0  -9 14 0  -8.000647796845064 13.99979866880271 0  -7.001297279610747 13.99958802714315 0  -6.001950991506583 13.9993579471054 0  -5.002613737185359 13.99909669971885 0  -4.002620198840217 13.9997340073805 0  -3.002621794975857 14.00037922297258 0  -2.001686106582135 14.00029146893184 0  -1.000765045703943 14.00024621098382 0  0.0001489824260854362 14.00023738122343 0  1.001063053928871 14.00026319367742 0  2.001983476724053 14.00032498456826 0  3.002914809736634 14.00042603658611 0  4.002921162667766 13.99972648277408 0  5.002928051322226 13.99903091469598 0  6.00218659302668 13.99930755621304 0  7.0014546067932 13.99955423677236 0  8.00072659388044 13.99978175854844 0  9 14 0  -9 16 0  -8.000927722055728 15.99981770956545 0  -7.001874016504133 15.99962861965833 0  -6.002859004997864 15.99942580924562 0  -5.003906011871493 15.9992022288412 0  -4.003943448983701 15.99974044130308 0  -3.003905683611498 16.00027550454785 0  -2.002484707693499 16.0002136535298 0  -1.00112044722967 16.00017944547114 0  0.0002164421709821356 16.00017216260174 0  1.001553656831723 16.00019144693283 0  2.002918825647229 16.0002376030681 0  3.004341262882522 16.00031145828354 0  4.004381667004064 15.99970798518486 0  5.004347855703182 15.99910380765207 0  6.003191170054853 15.99935473522451 0  7.002095724867458 15.99958236518903 0  8.001038644151723 15.99979489314497 0  9 16 0  -9 18 0  -8.001132916305423 17.99986395879119 0  -7.002295186286915 17.99972413808759 0  -6.003517667254135 17.99957682276405 0  -5.004834229709015 17.99941844814207 0  -4.004891116374823 17.99974050297665 0  -3.004834200118554 18.0000618669822 0  -2.003057879940096 18.00002555771926 0  -1.001367015853337 18.00000528353549 0  0.0002826145403462416 18.0000009777395 0  1.001933114841243 18.00001251108491 0  2.003626532478578 18.00003971345221 0  3.005406903730964 18.0000822923535 0  4.005466528657499 17.9996937860873 0  5.005410921929083 17.99930608294234 0  6.003949163591053 17.9994952290942 0  7.002582360626866 17.99967097884595 0  8.00127635760143 17.99983774147826 0  9 18 0  -9 20 0  -8.001220288456061 19.99992531941058 0  -7.002474700221744 19.99984964671133 0  -6.003798661930591 19.99977209937568 0  -5.00523021239746 19.99969201386889 0  -4.005295219968172 19.99973861989574 0  -3.005229200229379 19.99978450884457 0  -2.003290862258747 19.99977353948786 0  -1.001449408764112 19.99976747268658 0  0.0003453083774236283 19.9997666627717 0  1.002141662242951 19.99977112003185 0  2.003988035825498 19.99978052475799 0  3.005934618427585 19.99979419612925 0  4.006002504068441 19.99968616000434 0  5.005936488763291 19.99957863562269 0  6.004325657872253 19.9996893458752 0  7.002824756711354 19.99979556022512 0  8.001394938335059 19.99989860010171 0  8.99999999998348 19.99999999999763 0  -9 22 0  -8.00117078687761 21.99999064202692 0  -7.002375200449701 21.99998265474916 0  -6.003647933768982 21.99997753458593 0  -5.005025808387416 21.99997703230362 0  -4.00508932766769 21.99973418869432 0  -3.005024603252883 21.99949060404411 0  -2.003137981377608 21.99950198455689 0  -1.001345634952256 21.9995087177216 0  0.0004014768290875365 21.99951136179836 0  1.002150953392397 21.99951001733869 0  2.00395042705636 21.9995043363416 0  3.005849039992698 21.99949351399209 0  4.005915097562428 21.99968314996588 0  5.005848470704469 21.99987302832366 0  6.004260816809097 21.99990144055713 0  7.00278184667604 21.99993282943092 0  8.001373529401537 21.99996600010154 0  9 22 0  -9 24 0  -8.00098637932591 24.00005048462841 0  -7.002001578119315 24.0001041982925 0  -6.003075234822964 24.00016450175345 0  -5.004238603388092 24.00023502510222 0  -4.004292993594462 23.99972753529105 0  -3.00423776988557 23.99921938300505 0  -2.002609641153162 23.99924895251006 0  -1.0010616742099 23.99926625767216 0  0.0004482383638202362 23.99927195430478 0  1.001961118877673 23.99926619702912 0  2.003518033604887 23.99924864190432 0  3.005161222937495 23.99921844316949 0  4.005217325350885 23.99968380114026 0  5.005158224438139 24.00014924911701 0  6.003759701043201 24.00010161407346 0  7.002455406351775 24.00006295971187 0  8.00121255052094 24.00003007124031 0  9 24 0  -9 26 0  -8.00068623230549 26.00009742215739 0  -7.001393203922822 26.00019939309185 0  -6.002142227010209 26.00031059697298 0  -5.002955684666776 26.00043599558088 0  -4.002995118597003 25.99971913002418 0  -3.00295563127218 25.9990017205995 0  -2.001762247183758 25.99904482521176 0  -1.000626217469821 25.99907008074541 0  0.0004832005014606201 25.9990782111563 0  1.001596022192754 25.99906941445654 0  2.002742315956084 25.99904336325442 0  3.003952967325266 25.99899920414166 0  4.00399298663478 25.99968715295862 0  5.003947662510053 26.00037505859392 0  6.002880158789745 26.00026585755559 0  7.001882296077047 26.00017002451348 0  8.000929920850171 26.00008287492881 0  9 26 0  -9 28 0  -8.000302582493385 28.00012617676969 0  -7.000615634095306 28.00025766738665 0  -6.000949935735729 28.00039992417281 0  -5.001316788900168 28.00055867911488 0  -4.001337313286114 27.99970967830067 0  -3.001317713956295 27.99886030513299 0  -2.000687005925582 27.99891193125234 0  -1.000085021660335 27.99894224053806 0  0.0005046091954428486 27.99895201216919 0  1.001097899324854 27.99894148266499 0  2.001710910061882 27.99891034679198 0  3.002360156969279 27.99885775668346 0  4.002380049015379 27.99969243750291 0  5.002352910655214 28.00052699378155 0  6.001720516707902 28.00037663163065 0  7.001126275774044 28.00024236290516 0  8.000556
[...]
<PointData  Vectors="f_42"> 
<DataArray  type="Float64"  Name="f_42"  NumberOfComponents="3" format="ascii">0.0000000000000000e+00 0.0000000000000000e+00 0.0000000000000000e+00  0.0000000000000000e+00 0.0000000000000000e+00 0.0000000000000000e+00  0.0000000000000000e+00 0.0000000000000000e+00 0.0000000000000000e+00  0.0000000000000000e+00 0.0000000000000000e+00 0.0000000000000000e+00  0.0000000000000000e+00 0.0000000000000000e+00 0.0000000000000000e+00  0.0000000000000000e+00 0.0000000000000000e+00 0.0000000000000000e+00  0.0000000000000000e+00 0.0000000000000000e+00 0.0000000000000000e+00  0.0000000000000000e+00 0.0000000000000000e+00 0.0000000000000000e+00  0.0000000000000000e+00 0.0000000000000000e+00 0.0000000000000000e+00  0.0000000000000000e+00 0.0000000000000000e+00 0.0000000000000000e+00  0.0000000000000000e+00 0.0000000000000000e+00 0.0000000000000000e+00  0.0000000000000000e+00 0.0000000000000000e+00 0.0000000000000000e+00  0.0000000000000000e+00 0.0000000000000000e+00 0.0000000000000000e+00  0.0000000000000000e+00 0.0000000000000000e+00 0.0000000000000000e+00  0.0000000000000000e+00 0.0000000000000000e+00 0.0000000000000000e+00  0.0000000000000000e+00 0.0000000000000000e+00 0.0000000000000000e+00  0.0000000000000000e+00 0.0000000000000000e+00 0.0000000000000000e+00  0.0000000000000000e+00 0.0000000000000000e+00 0.0000000000000000e+00  0.0000000000000000e+00 0.0000000000000000e+00 0.0000000000000000e+00  0.0000000000000000e+00 0.0000000000000000e+00 0.0000000000000000e+00  -4.2691765269439355e-06 -6.8913698568854659e-06 0.0000000000000000e+00  -9.0049942183714394e-06 -1.2909717194538178e-05 0.0000000000000000e+00  -1.5291797174932229e-05 -1.7342881143815079e-05 0.0000000000000000e+00  -2.5596177513833562e-05 -1.9870079993357930e-05 0.0000000000000000e+00  -1.4809904974797352e-05 -1.4968886100078159e-05 0.0000000000000000e+00  -3.6796157553435629e-06 -1.0178850503578160e-05 0.0000000000000000e+00  1.7152616591591165e-06 -5.6274741576096182e-06 0.0000000000000000e+00  2.5320275902379163e-06 -2.0439798211478634e-06 0.0000000000000000e+00  5.1390925291582416e-07 -5.3103249747888396e-07 0.0000000000000000e+00  -1.6241527864942561e-06 -1.7821539649503031e-06 0.0000000000000000e+00  -1.2138834123215292e-06 -5.5604961510637931e-06 0.0000000000000000e+00  3.5755630480535769e-06 -1.0241713064419167e-05 0.0000000000000000e+00  1.3406759357581469e-05 -1.5435822750275881e-05 0.0000000000000000e+00  2.7802479590951183e-05 -1.8155802873135642e-05 0.0000000000000000e+00  1.7081665957938021e-05 -1.7065349334500912e-05 0.0000000000000000e+00  1.0267964036431209e-05 -1.3031617306730599e-05 0.0000000000000000e+00  4.9247694677740646e-06 -7.0187816415482466e-06 0.0000000000000000e+00  0.0000000000000000e+00 0.0000000000000000e+00 0.0000000000000000e+00  -4.9820587634006413e-12 0.0000000000000000e+00 0.0000000000000000e+00  -6.6717383570939844e-06 -1.7274552403849569e-05 0.0000000000000000e+00  -1.1806075518750453e-05 -3.2159964584513820e-05 0.0000000000000000e+00  -1.4513253695188820e-05 -4.2309511065961012e-05 0.0000000000000000e+00  -1.5007917727604013e-05 -4.5473483924523910e-05 0.0000000000000000e+00  9.8209764519171545e-07 -4.3383709762172193e-05 0.0000000000000000e+00  1.1727422628549432e-05 -2.9732866925946001e-05 0.0000000000000000e+00  1.4502722037446304e-05 -1.1850566544980871e-05 0.0000000000000000e+00  1.0356317906600854e-05 2.5150194983921884e-06 0.0000000000000000e+00  2.4519342886145635e-06 8.1486996171468529e-06 0.0000000000000000e+00  -5.5612106991241329e-06 3.1510376424502289e-06 0.0000000000000000e+00  -1.0046109421810322e-05 -9.8806436227742922e-06 0.0000000000000000e+00  -7.3391038657464314e-06 -2.7565343948337162e-05 0.0000000000000000e+00  3.6969019262106072e-06 -4.5658885071584519e-05 0.0000000000000000e+00  2.0346852327714305e-05 -5.2769850150874506e-05 0.0000000000000000e+00  1.8534771575908412e-05 -4.5903568479202037e-05 0.0000000000000000e+00  1.4653774968008730e-05 -3.3979275439659512e-05 0.0000000000000000e+00  8.1756731627409414e-06 -1.8060966165423419e-05 0.0000000000000000e+00  0.0000000000000000e+00 0.0000000000000000e+00 0.0000000000000000e+00  0.0000000000000000e+00 0.0000000000000000e+00 0.0000000000000000e+00  -1.5223562571863253e-05 -3.7212891093905060e-05 0.0000000000000000e+00  -2.4315781906795651e-05 -7.0352366429030734e-05 0.0000000000000000e+00  -2.2584745565121359e-05 -9.5217156051992041e-05 0.0000000000000000e+00  -8.6551313111015382e-06 -1.0774465960935238e-04 0.0000000000000000e+00  2.2866973526506799e-05 -8.7656815125923535e-05 0.0000000000000000e+00  3.7302601131150625e-05 -4.5078843819188728e-05 0.0000000000000000e+00  3.1897631913335748e-05 -2.9845309359639582e-07 0.0000000000000000e+00  1.7948759380604498e-05 2.4726536943636767e-05 0.0000000000000000e+00  3.6469528824979016e-06 2.9616647489514295e-05 0.0000000000000000e+00  -9.3473319467591481e-06 2.1018728684616639e-05 0.0000000000000000e+00  -1.9255581522246336e-05 -2.4915291392703260e-06 0.0000000000000000e+00  -2.2778767574526547e-05 -4.2167115673087839e-05 0.0000000000000000e+00  -1.4765867818469495e-05 -8.3580443757524890e-05 0.0000000000000000e+00  1.3195464095349065e-05 -1.0485569363788966e-04 0.0000000000000000e+00  2.8263550260242882e-05 -9.4972510597952806e-05 0.0000000000000000e+00  2.9427564880562104e-05 -7.0901446625998193e-05 0.0000000000000000e+00  1.8216200884594657e-05 -3.7672287453020819e-05 0.0000000000000000e+00  0.0000000000000000e+00 0.0000000000000000e+00 0.0000000000000000e+00  0.0000000000000000e+00 0.0000000000000000e+00 0.0000000000000000e+00  -4.8296646372686582e-05 -7.3438341943078464e-05 0.0000000000000000e+00  -8.0116013303498050e-05 -1.4163642769747132e-04 0.0000000000000000e+00  -7.9448953121666677e-05 -1.9746685401106806e-04 0.0000000000000000e+00  -3.2477560614832112e-05 -2.2916860064226683e-04 0.0000000000000000e+00  2.8338049869209269e-05 -1.3534165300936303e-04 0.0000000000000000e+00  1.8196255081448497e-05 -2.4719610726321906e-05 0.0000000000000000e+00  -3.7585459240440510e-06 2.9802399560640735e-05 0.0000000000000000e+00  -5.3655733800733373e-06 3.6784968462261970e-05 0.0000000000000000e+00  8.2038579830083510e-06 3.8934968088734641e-05 0.0000000000000000e+00  1.8106003837594484e-05 4.4412236785327031e-05 0.0000000000000000e+00  1.3461499594977574e-05 2.0395393384830750e-05 0.0000000000000000e+00  -1.3779091065172115e-05 -2.0413966585952245e-05 0.0000000000000000e+00  -2.2909080603063321e-05 -1.2014077187051576e-04 0.0000000000000000e+00  3.8812186214553665e-05 -2.3247367868981764e-04 0.0000000000000000e+00  9.3603400392645015e-05 -2.0078263496725623e-04 0.0000000000000000e+00  9.3696669648317001e-05 -1.4444797649054112e-04 0.0000000000000000e+00  5.6270649485708374e-05 -7.5049984311060589e-05 0.0000000000000000e+00  0.0000000000000000e+00 0.0000000000000000e+00 0.0000000000000000e+00  0.0000000000000000e+00 0.0000000000000000e+00 0.0000000000000000e+00  -1.4724620216458820e-04 -1.3059838868219014e-04 0.0000000000000000e+00  -2.6582650247661027e-04 -2.6235021340165085e-04 0.0000000000000000e+00  -3.2149592133990171e-04 -3.9616353050567606e-04 0.0000000000000000e+00  -2.6650023426083168e-04 -5.3237281833810358e-04 0.0000000000000000e+00  -1.7055224430563269e-04 -2.3062036112317987e-04 0.0000000000000000e+00  -1.8428868722796915e-04 2.9475448857640196e-05 0.0000000000000000e+00  -1.4451085642061906e-04 -1.2834836617367039e-05 0.0000000000000000e+00  -6.0194739336245248e-05 -2.6392962282702039e-05 0.0000000000000000e+00  2.6334131970054947e-06 -2.9711742458298781e-05 0.0000000000000000e+00  6.5405969844317785e-05 -2.9709221815091366e-05 0.0000000000000000e+00  1.4953101482472053e-04 -3.2319135741329608e-05 0.0000000000000000e+00  2.2281908128352561e-04 6.3466679507180590e-05 0.0000000000000000e+00  2.1311905817688950e-04 -1.9587274942569984e-04 0.0000000000000000e+00  3.2697995960019171e-04 -5.3742904897679893e-04 0.0000000000000000e+00  3.7765971960960132e-04 -4.0510840685477952e-04 0.0000000000000000e+00  3.0799491186863672e-04 -2.7021474901765699e-04 0.0000000000000000e+00  1.6967185590492829e-04 -1.3501453634583675e-04 0.0000000000000000e+00  0.0000000000000000e+00 0.0000000000000000e+00 0.0000000000000000e+00  0.0000000000000000e+00 0.0000000000000000e+00 0.0000000000000000e+00  -3.6070896514074885e-04 -1.8308872856496298e-04 0.0000000000000000e+00  -7.0293447915084335e-04 -3.7472372469609576e-04 0.0000000000000000e+00  -1.0057270259667718e-03 -5.8511263549798588e-04 0.0000000000000000e+00  -1.2430494617788406e-03 -8.2846405587936125e-04 0.0000000000000000e+00  -1.1938460092458102e-03 -2.8044150278472654e-04 0.0000000000000000e+00  -1.2357679522677619e-03 2.6194596341810351e-04 0.0000000000000000e+00  -8.3010122083412407e-04 1.9964888418329125e-04 0.0000000000000000e+00  -3.8197694230798838e-04 1.6754686626592742e-04 0.0000000000000000e+00  8.1409627849852518e-05 1.6428963797814226e-04 0.0000000000000000e+00  5.4762540779036825e-04 1.9128449644320201e-04 0.0000000000000000e+00  1.0056676554085371e-03 2.5558189365580702e-04 0.0000000000000000e+00  1.4335274383431814e-03 3.7454954678665936e-04 0.0000000000000000e+00  1.3839918167398678e-03 -2.4878784072792731e-04 0.0000000000000000e+00  1.4187884081323713e-03 -8.7739299217941779e-04 0.0000000000000000e+00  1.1427184385121769e-03 -6.1958903917020964e-04 0.0000000000000000e+00  7.9673711261985393e-04 -3.9712338941174860e-04 0.0000000000000000e+00  4.0835197585749116e-04 -1.9418397947266693e-04 0.0000000000000000e+00  0.0000000000000000e+00 0.0000000000000000e+00 0.0000000000000000e+00  0.0000000000000000e+00 0.0000000000000000e+00 0.0000000000000000e+00  -6.4779684507462179e-04 -2.0133119728881133e-04 0.0000000000000000e+00  -1.2972796107500221e-03 -4.1197285684918289e-04 0.0000000000000000e+00  -1.9509915065831032e-03 -6.4205289460960184e-04 0.0000000000000000e+00  -2.6137371853644448e-03 -9.0330028115373669e-04 0.0000000000000000e+00  -2.6201988402187867e-03 -2.6599261949328224e-04 0.0000000000000000e+00  -2.6217949758550936e-03 3.7922297258023095e-04 0.0000000000000000e+00  -1.6861065821344608e-03 2.9146893182687431e-04 0.0000000000000000e+00  -7.6504570394158634e-04 2.4621098381605343e-04 0.0000000000000000e+00  1.4898242608543617e-04 2.3738122342700820e-04 0.0000000000000000e+00  1.0630539288687662e-03 2.6319367743186662e-04 0.0000000000000000e+00  1.9834767240567044e-03 3.2498456826397679e-04 0.0000000000000000e+00  2.9148097366350095e-03 4.2603658610569932e-04 0.0000000000000000e+00  2.9211626677567871e-03 -2.7351722592199821e-04 0.0000000000000000e+00  2.9280513222307235e-03 -9.6908530402158184e-04 0.0000000000000000e+00  2.1865930266781594e-03 -6.9244378696846636e-04 0.0000000000000000e+00  1.4546067931978377e-03 -4.4576322764683027e-04 0.0000000000000000e+00  7.2659388043375378e-04 -2.1824145156447859e-04 0.0000000000000000e+00  0.0000000000000000e+00 0.0000000000000000e+00 0.0000000000000000e+00  0.0000000000000000e+00 0.0000000000000000e+00 0.0000000000000000e+00  -9.2772205571779547e-04 -1.8229043455128367e-04 0.0000000000000000e+00  -1.8740165041354929e-03 -3.7138034167139190e-04 0.0000000000000000e+00  -2.8590049978629360e-03 -5.7419075436697224e-04 0.0000000000000000e+00  -3.9060118714938697e-03 -7.9777115880867266e-04 0.0000000000000000e+00  -3.9434489837000151e-03 -2.5955869691151310e-04 0.0000000000000000e+00  -3.9056836114980363e-03 2.7550454785610492e-04 0.0000000000000000e+00  -2.4847076935003488e-03 2.1365352980363782e-04 0.0000000000000000e+00  -1.1204472296701528e-03 1.7944547114035969e-04 0.0000000000000000e+00  2.1644217098213555e-04 1.7216260174378006e-04 0.0000000000000000e+00  1.5536568317225383e-03 1.9144693282955287e-04 0.0000000000000000e+00  2.9188256472264125e-03 2.3760306809260295e-04 0.0000000000000000e+00  4.3412628825265868e-03 3.1145828352702155e-04 0.0000000000000000e+00  4.3816670040613638e-03 -2.9201481512277348e-04 0.0000000000000000e+00  4.3478557031868294e-03 -8.9619234793781981e-04 0.0000000000000000e+00  3.1911700548575323e-03 -6.4526477548466693e-04 0.0000000000000000e+00  2.0957248674552307e-03 -4.1763481097647516e-04 0.0000000000000000e+00  1.0386441517292525e-03 -2.0510685503791396e-04 0.0000000000000000e+00  0.0000000000000000e+00 0.0000000000000000e+00 0.0000000000000000e+00  0.0000000000000000e+00 0.0000000000000000e+00 0.0000000000000000e+00  -1.1329163054066248e-03 -1.3604120879884876e-04 0.0000000000000000e+00  -2.2951862869153576e-03 -2.7586191239750582e-04 0.0000000000000000e+00  -3.5176672541345671e-03 -4.2317723594620111e-04 0.0000000000000000e+00  -4.8342297090177505e-03 -5.8155185791320643e-04 0.0000000000000000e+00  -4.8911163748218082e-03 -2.5949702336486866e-04 0.0000000000000000e+00  -4.8342001185548225e-03 6.1866982209633404e-05 0.0000000000000000e+00  -3.0578799400946669e-03 2.5557719251500372e-05 0.0000000000000000e+00  -1.3670158533394682e-03 5.2835354827334035e-06 0.0000000000000000e+00  2.8261454034624159e-04 9.7773949817198908e-07 0.0000000000000000e+00  1.9331148412438655e-03 1.2511084914950635e-05 0.0000000000000000e+00  3.6265324785741729e-03 3.9713452203942712e-05 0.0000000000000000e+00  5.4069037309646397e-03 8.2292353484683829e-05 0.0000000000000000e+00  5.4665286574983804e-03 -3.0621391270880665e-04 0.0000000000000000e+00  5.4109219290834794e-03 -6.9391705768987941e-04 0.0000000000000000e+00  3.9491635910567039e-03 -5.0477090580708774e-04 0.0000000000000000e+00  2.5823606268729851e-03 -3.2902115404751181e-04 0.0000000000000000e+00  1.2763576014265384e-03 -1.6225852173749037e-04 0.0000000000000000e+00  0.0000000000000000e+00 0.0000000000000000e+00 0.0000000000000000e+00  0.0000000000000000e+00 0.0000000000000000e+00 0.0000000000000000e+00  -1.2202884560513863e-03 -7.4680589430070043e-05 0.0000000000000000e+00  -2.4747002217429532e-03 -1.5035328866681112e-04 0.0000000000000000e+00  -3.7986619305956280e-03 -2.2790062429326656e-04 0.0000000000000000e+00  -5.2302123974606431e-03 -3.0798613110169162e-04 0.0000000000000000e+00  -5.2952199681722753e-03 -2.6138010425567155e-04 0.0000000000000000e+00  -5.2292002293826221e-03 -2.1549115543481462e-04 0.0000000000000000e+00  -3.2908622587467652e-03 -2.2646051213605169e-04 0.0000000000000000e+00  -1.4494087641131915e-03 -2.3252731342191622e-04 0.0000000000000000e+00  3.4530837742362827e-04 -2.3333722827193685e-04 0.0000000000000000e+00  2.1416622429513972e-03 -2.2887996814900579e-04 0.0000000000000000e+00  3.9880358255024780e-03 -2.1947524200737029e-04 0.0000000000000000e+00  5.9346184275866475e-03 -2.0580387077548436e-04 0.0000000000000000e+00  6.0025040684435491e-03 -3.1383999568295362e-04 0.0000000000000000e+00  5.9364887632884691e-03 -4.2136437730180533e-04 0.0000000000000000e+00  4.3256578722514266e-03 -3.1065412481234915e-04 0.0000000000000000e+00  2.8247567113535714e-03 -2.0443977487779675e-04 0.0000000000000000e+00  1.3949383350401478e-03 -1.0139989831489932e-04 0.0000000000000000e+00  -1.6523181684204191e-11 -2.3587220829898137e-12 0.0000000000000000e+00  0.0000000000000000e+00 0.0000000000000000e+00 0.0000000000000000e+00  -1.1707868776048228e-03 -9.3579730797936854e-06 0.0000000000000000e+00  -2.3752004497037305e-03 -1.7345250844349918e-05 0.0000000000000000e+00  -3.6479337689827780e-03 -2.2465414075193871e-05 0.0000000000000000e+00  -5.0258083874148221e-03 -2.2967696366000845e-05 0.0000000000000000e+00  -5.0893276676913729e-03 -2.6581130565297360e-04 0.0000000000000000e+00  -5.0246032528846992e-03 -5.0939595589535001e-04 0.0000000000000000e+00  -3.1379813776048083e-03 -4.9801544308802675e-04 0.0000000000000000e+00  -1.3456349522576623e-03 -4.9128227838959469e-04 0.0000000000000000e+00  4.0147682908753647e-04 -4.8863820166241822e-04 0.0000000000000000e+00  2.1509533923966123e-03 -4.8998266131852579e-04 0.0000000000000000e+00  3.9504270563599586e-03 -4.9566365842247456e-04 0.0000000000000000e+00  5.8490399926967793e-03 -5.0648600792650017e-04 0.0000000000000000e+00  5.9150975624314350e-03 -3.1685003410130357e-04 0.0000000000000000e+00  5.8484707044678215e-03 -1.2697167633793146e-04 0.0000000000000000e+00  4.2608168090941863e-03 -9.8559442863903240e-05 0.0000000000000000e+00  2.7818466760345588e-03 -6.7170569069308666e-05 0.0000000000000000e+00  1.3735294015327427e-03 -3.3999898443198938e-05 0.0000000000000000e+00  0.0000000000000000e+00 0.0000000000000000e+00 0.0000000000000000e+00  0.0000000000000000e+00 0.0000000000000000e+00 0.0000000000000000e+00  -9.8637932590099815e-04 5.0484628401119775e-05 0.0000000000000000e+00  -2.0015781193180177e-03 1.0419829253113000e-04 0.0000000000000000e+00  -3.0752348229683138e-03 1.6450175344928896e-04 0.0000000000000000e+00  -4.2386033880815440e-03 2.3502510221225624e-04 0.0000000000000000e+00  -4.2929935944622096e-03 -2.7246470893417491e-04 0.0000000000000000e+00  -4.2377698855694569e-03 -7.8061699496422064e-04 0.0000000000000000e+00  -2.6096411531589037e-03 -7.5104748993914787e-04 0.0000000000000000e+00  -1.0616742099008075e-03 -7.3374232784217865e-04 0.0000000000000000e+00  4.4823836382023620e-04 -7.2804569522558638e-04 0.0000000000000000e+00  1.9611188776715257e-03 -7.3380297088467786e-04 0.0000000000000000e+00  3.5180336048910685e-03 -7.5135809565690052e-04 0.0000000000000000e+00  5.1612229374929444e-03 -7.8155683050815084e-04 0.0000000000000000e+00  5.2173253508748171e-03 -3.1619885973587213e-04 0.0000000000000000e+00  5.1582244381380678e-03 1.4924911700719783e-04 0.0000000000000000e+00  3.7597010432026878e-03 1.0161407348780259e-04 0.0000000000000000e+00  2.4554063517700300e-03 6.2959711867114062e-05 0.0000000000000000e+00  1.2125505209390766e-03 3.0071240319700901e-05 0.0000000000000000e+00  0.0000000000000000e+00 0.0000000000000000e+00 0.0000000000000000e+00  0.0000000000000000e+00 0.0000000000000000e+00 0.0000000000000000e+00  -6.8623230549464417e-04 9.7422157388242904e-05 0.0000000000000000e+00  -1.3932039228234186e-03 1.9939309185194686e-04 0.0000000000000000e+00  -2.1422270102054962e-03 3.1059697297499019e-04 0.0000000000000000e+00  -2.9556846667711302e-03 4.3599558088521824e-04 0.0000000000000000e+00  -2.9951185970061057e-03 -2.8086997580830764e-04 0.0000000000000000e+00  -2.9556312721775329e-03 -9.9827940049533929e-04 0.0000000000000000e+00  -1.7622471837588612e-03 -9.5517478824052010e-04 0.0000000000000000e+00  -6.2621746982126835e-04 -9.2991925457435961e-04 0.0000000000000000e+00  4.8320050146062008e-04 -9.2178884369276549e-04 0.0000000000000000e+00  1.5960221927543284e-03 -9.3058554344448608e-04 0.0000000000000000e+00  2.7423159560842989e-03 -9.5663674560479434e-04 0.0000000000000000e+00  3.9529673252637594e-03 -1.0007958583372533e-03 0.0000000000000000e+00  3.9929866347814024e-03 -3.1284704137321019e-04 0.0000000000000000e+00  3.9476625100492175e-03 3.7505859392636507e-04 0.0000000000000000e+00  2.8801587897454677e-03 2.6585755556978016e-04 0.0000000000000000e+00  1.8822960770456831e-03 1.7002451348416446e-04 0.0000000000000000e+00  9.2992085017542798e-04 8.2874928835084414e-05 0.0000000000000000e+00  0.0000000000000000e+00 0.0000000000000000e+00 0.0000000000000000e+00  0.0000000000000000e+00 0.0000000000000000e+00 0.0000000000000000e+00  -3.0258249338305769e-04 1.2617676969985288e-04 0.0000000000000000e+00  -6.1563409530775983e-04 2.5766738665863870e-04 0.0000000000000000e+00  -9.4993573573286228e-04 3.9992417281258967e-04 0.0000000000000000e+00  -1.3167889001672894e-03 5.5867911487846294e-04 0.0000000000000000e+00  -1.3373132861173797e-03 -2.9032169934844570e-04 0.0000000000000000e+00  -1.3177139562931242e-03 -1.1396948670341486e-03 0.0000000000000000e+00  -6.8700592558349741e-04 -1.0880687476905533e-03 0.0000000000000000e+00  -8.5021660334862390e-05 -1.0577594619466360e-03 0.0000000000000000e+00  5.0460919544284858e-04 -1.0479878308351299e-03 0.0000000000000000e+00  1.0978993248543262e-03 -1.0585173350151345e-03 0.0000000000000000e+00  1.7109100618821140e-03 -1.0896532080092627e-03 0.0000000000000000e+00  2.3601569692828879e-03 -1.1422433165379510e-03 0.0000000000000000e+00  2.3800490153763100e-03 -3.0756249709578803e-04 0.0000000000000000e+00  2.352