<?xml version="1.0"?>
<VTKFile type="UnstructuredGrid"  version="0.1"  >
<UnstructuredGrid>
<Piece  NumberOfPoints="589" NumberOfCells="1080">
<Points>
<DataArray  type="Float64"  NumberOfComponents="3"  format="ascii">-9 0 0  -8 0 0  -7 0 0  -6 0 0  -5 0 0  -4 0 0  -3 0 0  -2 0 0  -1 0 0  0 0 0  1 0 0  2 0 0  3 0 0  4 0 0  5 0 0  6 0 0  7 0 0  8 0 0  9 0 0  -9 2 0  -8.000006728249492 1.999989376133876 0  -7.000014131888587 1.999980104412075 0  -6.000023831097015 1.999973288151583 0  -5.000039555226651 1.999969427453521 0  -4.000022917533146 1.999976994936608 0  -3.000005837472132 1.999984412190954 0  -1.99999761394897 1.999991473824135 0  -0.9999964742705708 1.99999705161452 0  2.550406104244504e-07 1.999999462362291 0  0.9999967248404474 1.99999765941757 0  1.999996989132438 1.999992038051045 0  3.000003789456966 1.999985131688784 0  4.000018024309376 1.999977662592066 0  5.000038795343907 1.999974333599017 0  6.000023594208265 1.999975512856171 0  7.000014116098478 1.999981154200766 0  8.000006763372099 1.999989809620256 0  9 2 0  -9.000000000004983 4 0  -8.000010754808995 3.999973344344454 0  -7.000019081554529 3.999950387461244 0  -6.000023562447552 3.999934754318391 0  -5.000024502369261 3.999929903709587 0  -3.999999926365212 3.999933363529973 0  -2.999983515083201 3.999954580606611 0  -1.99997944610864 3.99998228674015 0  -0.9999860901140706 4.000004582921537 0  1.452404143515592e-06 4.000013468241266 0  0.9999887779431885 4.000006127114186 0  1.999981417011095 3.999986629303712 0  2.999984924952134 3.999960225439113 0  4.000001021474564 3.999933490419551 0  5.000025666679853 3.999923944524181 0  6.00002429614693 3.999933177856803 0  7.000019730453319 3.999950252881893 0  8.000011169010333 3.999973480202456 0  9 4 0  -9 6 0  -8.000024492792388 5.999942520764138 0  -7.000039414568506 5.999891378617807 0  -6.000037457629526 5.99985309334335 0  -5.000016513198919 5.999833930051947 0  -3.999968067789827 5.999865383253821 0  -2.999946102769578 5.999931492053661 0  -1.999954942411141 6.000000887298858 0  -0.9999768913141205 6.000039527626009 0  7.919570454544878e-07 6.000047169639773 0  0.9999806138110539 6.000034326770036 0  1.999965165738032 5.999998974527808 0  2.999959353901142 5.999939242138983 0  3.999971004501181 5.9998771273185 0  5.000013021104759 5.999845861227779 0  6.000037778685429 5.999859479055478 0  7.000041326828448 5.999894745809509 0  8.0000260034916 5.99994398414135 0  9 6 0  -9 8 0  -8.000076505022774 7.999886363886151 0  -7.000127256511628 7.999780958890647 0  -6.000127299083725 7.999694960959651 0  -5.000055248627548 7.999646782666296 0  -3.999961287782826 7.999792886634068 0  -2.999978255823129 7.999964769814718 0  -2.000013288548708 8.000048816140495 0  -1.000016299697475 8.000058740518238 0  4.540556985589379e-06 8.000061697721431 0  1.000019903409673 8.000070238017853 0  2.000012928580915 8.00003432981716 0  2.999971187860176 7.999973320685999 0  3.999956845118891 7.999822606824165 0  5.000050392280983 7.999652545503944 0  6.00013608685761 7.99969920808846 0  7.00013839502053 7.999783370516262 0  8.000083546422614 7.999887391686902 0  9 8 0  -9 10 0  -8.000231453695358 9.999797345166693 0  -7.000417850988875 9.999593008048194 0  -6.000505432105368 9.99938571041959 0  -5.000419299297444 9.999175135100479 0  -4.000270408432883 9.999646808637159 0  -3.000294119793609 10.00005259385611 0  -2.000233573037502 9.999983731339022 0  -1.000102862454711 9.999961628941897 0  -6.219947590881427e-06 9.999956213645181 0  1.000089944490649 9.999956506206805 0  2.00021850872834 9.99995346715782 0  3.000330910260383 10.00010165534051 0  4.000315831116607 9.999708244626206 0  5.000488404310922 9.999189157798742 0  6.000567768226485 9.999389071375969 0  7.000463980964311 9.999592635046596 0  8.000255808929055 9.999796498118322 0  9 10 0  -9 12 0  -8.00056626801906 11.99971518925959 0  -7.001103121649245 11.99941712487156 0  -6.001577282990289 11.99908996397449 0  -5.00194740790128 11.99871163221275 0  -4.001871139075837 11.9995712494137 0  -3.001939047107675 12.00042214549151 0  -2.001318782057241 12.00032128501313 0  -1.000630496479459 12.00026776935035 0  8.299017734956018e-05 12.00025935865434 0  1.00080231784288 12.00029801959036 0  2.001510776688615 12.00039441734968 0  3.002175203863261 12.00057504956144 0  4.002099403185252 11.99962861170182 0  5.00215043768011 11.99867418338426 0  6.001731198679281 11.99906464420621 0  7.001206677241602 11.99940089218944 0  8.000618356430369 11.99970716720521 0  9 12 0  -9 14 0  -8.001017997650608 13.99968619895608 0  -7.002037972022462 13.99935788927222 0  -6.003063243160006 13.99899928326229 0  -5.004100581446284 13.99859208314719 0  -4.004111220952161 13.99959580498894 0  -3.004116507786089 14.0006120904586 0  -2.002677477246132 14.0004697381831 0  -1.001259529106504 14.00039373722452 0  0.000149056727532821 14.0003744483596 0  1.001559325839246 14.00040887438957 0  2.002981334073731 14.00049884689406 0  3.004422669006582 14.00064919944216 0  4.004432551766079 13.99959150214361 0  5.004440653913622 13.99854009060354 0  6.003313876418459 13.99895768554686 0  7.002203466848494 13.9993294111142 0  8.001100356789854 13.99967180824038 0  9 14 0  -9 16 0  -8.001460808844223 15.99971534367504 0  -7.002949966913764 15.99942005219451 0  -6.004498245927741 15.99910330033139 0  -5.006141359417932 15.9987540510392 0  -4.006200214426049 15.99960778143226 0  -3.006143743254808 16.0004568316772 0  -2.003954487154194 16.00035361319178 0  -1.001852247701551 16.00029352547872 0  0.0002084818337861138 16.00027528574782 0  1.002270681760726 16.00029814441958 0  2.004377290471764 16.00036235949517 0  3.006573937666311 16.00046897896395 0  4.006636036799181 15.99956400277865 0  5.006582108518428 15.9986582003677 0  6.004827887974811 15.99903463155025 0  7.003169118224658 15.99937554259442 0  8.001570183275831 15.99969342892348 0  9 16 0  -9 18 0  -8.001789154374718 17.99978705525642 0  -7.003623565082876 17.99956816374957 0  -6.005550827981956 17.99933748032126 0  -5.007623196028448 17.99908938607783 0  -4.007712287627414 17.99960998564038 0  -3.007625546236337 18.00012974834312 0  -2.004886837528513 18.00006565342738 0  -1.002280500869331 18.00002663655319 0  0.0002620082449669185 18.00001243777974 0  1.002805922067097 18.0000226838064 0  2.005416382113989 18.00005692311197 0  3.008161629479772 18.0001144980841 0  4.008253079836505 17.99954337512243 0  5.008166307250558 17.99897371809035 0  6.005956428880888 17.99925394334402 0  7.003893121171982 17.99951394468723 0  8.001923678537903 17.9997603746761 0  9 18 0  -9 20 0  -8.00193548618012 19.99988253832337 0  -7.003923791599045 19.99976347123983 0  -6.006019753251626 19.99964136550863 0  -5.008282245235161 19.99951512585 0  -4.008384027492897 19.99960932355057 0  -3.008282673919979 19.99970259534615 0  -2.005293570173558 19.99967789324543 0  -1.002455266455359 19.99966100486792 0  0.0003098765230201042 19.99965233913658 0  1.003076703326704 19.99965176327346 0  2.005920047730823 19.99965862216986 0  3.008917529340441 19.99967169002219 0  4.009021331937745 19.99953302905913 0  5.008919238993988 19.99939533217415 0  6.00649489886639 19.99955423325426 0  7.004239325035785 19.99970667179075 0  8.00209288599147 19.9998545246005 0  8.999999999984778 19.99999999999532 0  -9 22 0  -8.001869621484754 21.99998442644788 0  -7.003791431260024 21.99997093320249 0  -6.005819266909143 21.99996179689726 0  -5.008010250180494 21.99995969160398 0  -4.00810991716971 21.99960459219404 0  -3.008010248284368 21.9992484648562 0  -2.005101051171032 21.99925905227223 0  -1.002339236502646 21.9992626732652 0  0.0003510303698386574 21.99926007295032 0  1.003043304356917 21.99925128312295 0  2.00581115438491 21.99923563579358 0  3.008730460675755 21.99921174986028 0  4.008830952752668 21.99952967217064 0  5.008728492978408 21.99984807693922 0  6.006354655575496 21.99988036237339 0  7.004146792354287 21.99991772137257 0  8.002046830682156 21.99995814369846 0  9 22 0  -9 24 0  -8.001594047636004 24.00007799762805 0  -7.003232946492735 24.00016097231665 0  -6.004962825903549 24.00025410529902 0  -5.006832292332464 24.00036300121606 0  -4.006918098345381 23.99959598821655 0  -3.006832981273089 23.99882802463161 0  -2.004322856859099 23.99886792520783 0  -1.001938787298602 23.99888908489496 0  0.0003842619021227971 23.99889242263607 0  1.002709597373107 23.9988780814648 0  2.005100551425067 23.99884543199269 0  3.007622238253797 23.99879306701247 0  4.007706842029347 23.99953150151327 0  5.007616380750811 24.00027013868206 0  6.005547022288522 24.00018616932587 0  7.003620572123554 24.00011649547809 0  8.001787304727047 24.00005600365628 0  9 24 0  -9 26 0  -8.001137971365184 26.00015168400836 0  -7.002308373216845 26.00031039514929 0  -6.00354454347964 26.00048337009722 0  -5.004881456882142 26.00067827993517 0  -4.004944413066561 25.99958403206649 0  -3.004883581036042 25.99848901101997 0  -2.003044169827896 25.99855141058357 0  -1.001295944735062 25.99858643492199 0  0.0004085120998179341 25.99859513563518 0  1.002115449383557 25.99857775282783 0  2.00387114542634 25.99853371581651 0  3.00572310447442 25.99846164147298 0  4.005782437531229 25.99953682045418 0  5.005713460975374 26.00061199268848 0  6.004164302283106 26.00043478609346 0  7.002719529132855 26.00027854379724 0  8.001342939477523 26.00013591938893 0  9 26 0  -9 28 0  -8.000550886228718 28.00019728780089 0  -7.001118388070469 28.00040278254554 0  -6.001719635488749 28.00062490536855 0  -5.002372542297086 28.00087251246307 0  -4.002406483168234 27.99956979211322 0  -3.002376342067781 27.99826659706191 0  -2.001404399240752 27.99834402376969 0  -1.000479685729584 27.99838870244396 0  0.0004230029468189731 27.99840180071035 0  1.001328268601025 27.99838365051252 0  2.002260739786612 27.99833374867189 0  3.003245702003743 27.99825075536837 0  4.003273716799242 27.99954442371107 0  5.003232926998095 28.00083799574393 0  6.002360503100498 28.00059956166205 0  7.001543534830237 28.00038614485144 0  8.
[...]
<PointData  Vectors="f_42"> 
<DataArray  type="Float64"  Name="f_42"  NumberOfComponents="3" format="ascii">0.0000000000000000e+00 0.0000000000000000e+00 0.0000000000000000e+00  0.0000000000000000e+00 0.0000000000000000e+00 0.0000000000000000e+00  0.0000000000000000e+00 0.0000000000000000e+00 0.0000000000000000e+00  0.0000000000000000e+00 0.0000000000000000e+00 0.0000000000000000e+00  0.0000000000000000e+00 0.0000000000000000e+00 0.0000000000000000e+00  0.0000000000000000e+00 0.0000000000000000e+00 0.0000000000000000e+00  0.0000000000000000e+00 0.0000000000000000e+00 0.0000000000000000e+00  0.0000000000000000e+00 0.0000000000000000e+00 0.0000000000000000e+00  0.0000000000000000e+00 0.0000000000000000e+00 0.0000000000000000e+00  0.0000000000000000e+00 0.0000000000000000e+00 0.0000000000000000e+00  0.0000000000000000e+00 0.0000000000000000e+00 0.0000000000000000e+00  0.0000000000000000e+00 0.0000000000000000e+00 0.0000000000000000e+00  0.0000000000000000e+00 0.0000000000000000e+00 0.0000000000000000e+00  0.0000000000000000e+00 0.0000000000000000e+00 0.0000000000000000e+00  0.0000000000000000e+00 0.0000000000000000e+00 0.0000000000000000e+00  0.0000000000000000e+00 0.0000000000000000e+00 0.0000000000000000e+00  0.0000000000000000e+00 0.0000000000000000e+00 0.0000000000000000e+00  0.0000000000000000e+00 0.0000000000000000e+00 0.0000000000000000e+00  0.0000000000000000e+00 0.0000000000000000e+00 0.0000000000000000e+00  0.0000000000000000e+00 0.0000000000000000e+00 0.0000000000000000e+00  -6.7282495011203855e-06 -1.0623866122965345e-05 0.0000000000000000e+00  -1.4131888583391183e-05 -1.9895587925191226e-05 0.0000000000000000e+00  -2.3831097016256563e-05 -2.6711848416189891e-05 0.0000000000000000e+00  -3.9555226657910929e-05 -3.0572546480294412e-05 0.0000000000000000e+00  -2.2917533143741056e-05 -2.3005063391028931e-05 0.0000000000000000e+00  -5.8374721356525201e-06 -1.5587809045056415e-05 0.0000000000000000e+00  2.3860510320919727e-06 -8.5261758652464932e-06 0.0000000000000000e+00  3.5257294285410372e-06 -2.9483854796342968e-06 0.0000000000000000e+00  2.5504061042445036e-07 -5.3763771059327346e-07 0.0000000000000000e+00  -3.2751595515720292e-06 -2.3405824294360129e-06 0.0000000000000000e+00  -3.0108675634373875e-06 -7.9619489539079769e-06 0.0000000000000000e+00  3.7894569677180906e-06 -1.4868311217236917e-05 0.0000000000000000e+00  1.8024309377226900e-05 -2.2337407934874905e-05 0.0000000000000000e+00  3.8795343906147033e-05 -2.5666400983250426e-05 0.0000000000000000e+00  2.3594208262142888e-05 -2.4487143829611139e-05 0.0000000000000000e+00  1.4116098473690387e-05 -1.8845799234668027e-05 0.0000000000000000e+00  6.7633720929694643e-06 -1.0190379745792229e-05 0.0000000000000000e+00  0.0000000000000000e+00 0.0000000000000000e+00 0.0000000000000000e+00  -4.9820587634006413e-12 0.0000000000000000e+00 0.0000000000000000e+00  -1.0754808991580600e-05 -2.6655655547719991e-05 0.0000000000000000e+00  -1.9081554523898824e-05 -4.9612538755909716e-05 0.0000000000000000e+00  -2.3562447552956544e-05 -6.5245681610341536e-05 0.0000000000000000e+00  -2.4502369266937513e-05 -7.0096290410621143e-05 0.0000000000000000e+00  7.3634785399277155e-08 -6.6636470026584240e-05 0.0000000000000000e+00  1.6484916797219847e-05 -4.5419393388046144e-05 0.0000000000000000e+00  2.0553891359911562e-05 -1.7713259851284168e-05 0.0000000000000000e+00  1.3909885929814203e-05 4.5829215378553376e-06 0.0000000000000000e+00  1.4524041435155923e-06 1.3468241270142571e-05 0.0000000000000000e+00  -1.1222056811325618e-05 6.1271141906977046e-06 0.0000000000000000e+00  -1.8582988905237713e-05 -1.3370696288280253e-05 0.0000000000000000e+00  -1.5075047861763656e-05 -3.9774560886487377e-05 0.0000000000000000e+00  1.0214745617010608e-06 -6.6509580448627012e-05 0.0000000000000000e+00  2.5666679848328733e-05 -7.6055475817769994e-05 0.0000000000000000e+00  2.4296146925862182e-05 -6.6822143195461936e-05 0.0000000000000000e+00  1.9730453321512106e-05 -4.9747118105812277e-05 0.0000000000000000e+00  1.1169010344256390e-05 -2.6519797546072531e-05 0.0000000000000000e+00  0.0000000000000000e+00 0.0000000000000000e+00 0.0000000000000000e+00  0.0000000000000000e+00 0.0000000000000000e+00 0.0000000000000000e+00  -2.4492792401478840e-05 -5.7479235868766159e-05 0.0000000000000000e+00  -3.9414568502731713e-05 -1.0862138219117213e-04 0.0000000000000000e+00  -3.7457629532881273e-05 -1.4690665664714517e-04 0.0000000000000000e+00  -1.6513198917586263e-05 -1.6606994804917944e-04 0.0000000000000000e+00  3.1932210174812828e-05 -1.3461674617216377e-04 0.0000000000000000e+00  5.3897230422361614e-05 -6.8507946334573028e-05 0.0000000000000000e+00  4.5057588858889824e-05 8.8729885477066036e-07 0.0000000000000000e+00  2.3108685879720942e-05 3.9527626011723683e-05 0.0000000000000000e+00  7.9195704545448784e-07 4.7169639769672788e-05 0.0000000000000000e+00  -1.9386188946593344e-05 3.4326770039288291e-05 0.0000000000000000e+00  -3.4834261966282555e-05 -1.0254721948767190e-06 0.0000000000000000e+00  -4.0646098859111330e-05 -6.0757861011141000e-05 0.0000000000000000e+00  -2.8995498817806575e-05 -1.2287268149975634e-04 0.0000000000000000e+00  1.3021104761609672e-05 -1.5413877221973448e-04 0.0000000000000000e+00  3.7778685421374046e-05 -1.4052094451907693e-04 0.0000000000000000e+00  4.1326828443807739e-05 -1.0525419049136257e-04 0.0000000000000000e+00  2.6003491599413478e-05 -5.6015858651552683e-05 0.0000000000000000e+00  0.0000000000000000e+00 0.0000000000000000e+00 0.0000000000000000e+00  0.0000000000000000e+00 0.0000000000000000e+00 0.0000000000000000e+00  -7.6505022782345672e-05 -1.1363611384748369e-04 0.0000000000000000e+00  -1.2725651162909525e-04 -2.1904110935531414e-04 0.0000000000000000e+00  -1.2729908372185146e-04 -3.0503904035320836e-04 0.0000000000000000e+00  -5.5248627548348996e-05 -3.5321733369495927e-04 0.0000000000000000e+00  3.8712217174124432e-05 -2.0711336592937134e-04 0.0000000000000000e+00  2.1744176869200815e-05 -3.5230185283071607e-05 0.0000000000000000e+00  -1.3288548708419020e-05 4.8816140498722568e-05 0.0000000000000000e+00  -1.6299697475629574e-05 5.8740518239627722e-05 0.0000000000000000e+00  4.5405569855893794e-06 6.1697721427086705e-05 0.0000000000000000e+00  1.9903409674466435e-05 7.0238017843453197e-05 0.0000000000000000e+00  1.2928580914601748e-05 3.4329817147487997e-05 0.0000000000000000e+00  -2.8812139825323420e-05 -2.6679313996087730e-05 0.0000000000000000e+00  -4.3154881110630442e-05 -1.7739317583239251e-04 0.0000000000000000e+00  5.0392280976906558e-05 -3.4745449606062739e-04 0.0000000000000000e+00  1.3608685761089430e-04 -3.0079191154023345e-04 0.0000000000000000e+00  1.3839502053080452e-04 -2.1662948374611221e-04 0.0000000000000000e+00  8.3546422607860059e-05 -1.1260831309752728e-04 0.0000000000000000e+00  0.0000000000000000e+00 0.0000000000000000e+00 0.0000000000000000e+00  0.0000000000000000e+00 0.0000000000000000e+00 0.0000000000000000e+00  -2.3145369536064760e-04 -2.0265483330366823e-04 0.0000000000000000e+00  -4.1785098887202034e-04 -4.0699195180646551e-04 0.0000000000000000e+00  -5.0543210536994746e-04 -6.1428958040582395e-04 0.0000000000000000e+00  -4.1929929744596964e-04 -8.2486489952270754e-04 0.0000000000000000e+00  -2.7040843287788569e-04 -3.5319136283793888e-04 0.0000000000000000e+00  -2.9411979361025490e-04 5.2593856108621531e-05 0.0000000000000000e+00  -2.3357303750509600e-04 -1.6268660972715631e-05 0.0000000000000000e+00  -1.0286245471137733e-04 -3.8371058102428294e-05 0.0000000000000000e+00  -6.2199475908814271e-06 -4.3786354831412087e-05 0.0000000000000000e+00  8.9944490651652586e-05 -4.3493793200417639e-05 0.0000000000000000e+00  2.1850872834136491e-04 -4.6532842187663691e-05 0.0000000000000000e+00  3.3091026038225901e-04 1.0165534050417751e-04 0.0000000000000000e+00  3.1583111661098777e-04 -2.9175537379260520e-04 0.0000000000000000e+00  4.8840431092884919e-04 -8.1084220126332977e-04 0.0000000000000000e+00  5.6776822649295402e-04 -6.1092862403556688e-04 0.0000000000000000e+00  4.6398096430819082e-04 -4.0736495340069949e-04 0.0000000000000000e+00  2.5580892904627958e-04 -2.0350188167983168e-04 0.0000000000000000e+00  0.0000000000000000e+00 0.0000000000000000e+00 0.0000000000000000e+00  0.0000000000000000e+00 0.0000000000000000e+00 0.0000000000000000e+00  -5.6626801905878751e-04 -2.8481074041534951e-04 0.0000000000000000e+00  -1.1031216492457031e-03 -5.8287512843922308e-04 0.0000000000000000e+00  -1.5772829902896373e-03 -9.1003602549672531e-04 0.0000000000000000e+00  -1.9474079012768515e-03 -1.2883677872455063e-03 0.0000000000000000e+00  -1.8711390758392916e-03 -4.2875058629936072e-04 0.0000000000000000e+00  -1.9390471076764586e-03 4.2214549150924679e-04 0.0000000000000000e+00  -1.3187820572400613e-03 3.2128501313719097e-04 0.0000000000000000e+00  -6.3049647945842503e-04 2.6776935035063523e-04 0.0000000000000000e+00  8.2990177349560185e-05 2.5935865434819629e-04 0.0000000000000000e+00  8.0231784287989900e-04 2.9801959036164337e-04 0.0000000000000000e+00  1.5107766886123886e-03 3.9441734968163916e-04 0.0000000000000000e+00  2.1752038632592528e-03 5.7504956142265273e-04 0.0000000000000000e+00  2.0994031852554175e-03 -3.7138829816585827e-04 0.0000000000000000e+00  2.1504376801051114e-03 -1.3258166157318315e-03 0.0000000000000000e+00  1.7311986792793222e-03 -9.3535579379023430e-04 0.0000000000000000e+00  1.2066772416094418e-03 -5.9910781056473717e-04 0.0000000000000000e+00  6.1835643036202989e-04 -2.9283279479587341e-04 0.0000000000000000e+00  0.0000000000000000e+00 0.0000000000000000e+00 0.0000000000000000e+00  0.0000000000000000e+00 0.0000000000000000e+00 0.0000000000000000e+00  -1.0179976506138227e-03 -3.1380104391847004e-04 0.0000000000000000e+00  -2.0379720224628336e-03 -6.4211072778160624e-04 0.0000000000000000e+00  -3.0632431600077425e-03 -1.0007167377083950e-03 0.0000000000000000e+00  -4.1005814462882293e-03 -1.4079168528100083e-03 0.0000000000000000e+00  -4.1112209521616356e-03 -4.0419501105037577e-04 0.0000000000000000e+00  -4.1165077860870394e-03 6.1209045859764828e-04 0.0000000000000000e+00  -2.6774772461307336e-03 4.6973818309001389e-04 0.0000000000000000e+00  -1.2595291065023557e-03 3.9373722450697433e-04 0.0000000000000000e+00  1.4905672753282099e-04 3.7444835959662813e-04 0.0000000000000000e+00  1.5593258392444023e-03 4.0887438957970984e-04 0.0000000000000000e+00  2.9813340737344569e-03 4.9884689406137046e-04 0.0000000000000000e+00  4.4226690065825702e-03 6.4919944214898901e-04 0.0000000000000000e+00  4.4325517660724909e-03 -4.0849785639815878e-04 0.0000000000000000e+00  4.4406539136255243e-03 -1.4599093964556798e-03 0.0000000000000000e+00  3.3138764184544307e-03 -1.0423144531425585e-03 0.0000000000000000e+00  2.2034668484924944e-03 -6.7058888580889093e-04 0.0000000000000000e+00  1.1003567898497254e-03 -3.2819175961804910e-04 0.0000000000000000e+00  0.0000000000000000e+00 0.0000000000000000e+00 0.0000000000000000e+00  0.0000000000000000e+00 0.0000000000000000e+00 0.0000000000000000e+00  -1.4608088442190921e-03 -2.8465632496617435e-04 0.0000000000000000e+00  -2.9499669137669701e-03 -5.7994780549262251e-04 0.0000000000000000e+00  -4.4982459277407329e-03 -8.9669966860415537e-04 0.0000000000000000e+00  -6.1413594179314289e-03 -1.2459489608099607e-03 0.0000000000000000e+00  -6.2002144260470560e-03 -3.9221856773379081e-04 0.0000000000000000e+00  -6.1437432548074869e-03 4.5683167721376927e-04 0.0000000000000000e+00  -3.9544871541947408e-03 3.5361319178919018e-04 0.0000000000000000e+00  -1.8522477015514962e-03 2.9352547872637906e-04 0.0000000000000000e+00  2.0848183378611383e-04 2.7528574781728851e-04 0.0000000000000000e+00  2.2706817607253630e-03 2.9814441957830772e-04 0.0000000000000000e+00  4.3772904717612176e-03 3.6235949516256962e-04 0.0000000000000000e+00  6.5739376663155489e-03 4.6897896394382292e-04 0.0000000000000000e+00  6.6360367991759577e-03 -4.3599722133410451e-04 0.0000000000000000e+00  6.5821085184330549e-03 -1.3417996322977698e-03 0.0000000000000000e+00  4.8278879748147284e-03 -9.6536844975283012e-04 0.0000000000000000e+00  3.1691182246569409e-03 -6.2445740557766122e-04 0.0000000000000000e+00  1.5701832758384232e-03 -3.0657107652146804e-04 0.0000000000000000e+00  0.0000000000000000e+00 0.0000000000000000e+00 0.0000000000000000e+00  0.0000000000000000e+00 0.0000000000000000e+00 0.0000000000000000e+00  -1.7891543747015647e-03 -2.1294474356409150e-04 0.0000000000000000e+00  -3.6235650828761105e-03 -4.3183625041553472e-04 0.0000000000000000e+00  -5.5508279819550359e-03 -6.6251967874918812e-04 0.0000000000000000e+00  -7.6231960284503780e-03 -9.1061392215807495e-04 0.0000000000000000e+00  -7.7122876274108342e-03 -3.9001435962560636e-04 0.0000000000000000e+00  -7.6255462363381500e-03 1.2974834313224772e-04 0.0000000000000000e+00  -4.8868375285116917e-03 6.5653427374270769e-05 0.0000000000000000e+00  -2.2805008693331536e-03 2.6636553185407069e-05 0.0000000000000000e+00  2.6200824496691854e-04 1.2437779729734617e-05 0.0000000000000000e+00  2.8059220670972190e-03 2.2683806402204025e-05 0.0000000000000000e+00  5.4163821139852856e-03 5.6923111954370142e-05 0.0000000000000000e+00  8.1616294797725534e-03 1.1449808408309292e-04 0.0000000000000000e+00  8.2530798365033561e-03 -4.5662487758444124e-04 0.0000000000000000e+00  8.1663072505605439e-03 -1.0262819096719048e-03 0.0000000000000000e+00  5.9564288808902294e-03 -7.4605665600007711e-04 0.0000000000000000e+00  3.8931211719877511e-03 -4.8605531276999300e-04 0.0000000000000000e+00  1.9236785378994325e-03 -2.3962532390304516e-04 0.0000000000000000e+00  0.0000000000000000e+00 0.0000000000000000e+00 0.0000000000000000e+00  0.0000000000000000e+00 0.0000000000000000e+00 0.0000000000000000e+00  -1.9354861801110944e-03 -1.1746167663846854e-04 0.0000000000000000e+00  -3.9237915990455452e-03 -2.3652876017627220e-04 0.0000000000000000e+00  -6.0197532516291889e-03 -3.5863449134577313e-04 0.0000000000000000e+00  -8.2822452351601541e-03 -4.8487414998765841e-04 0.0000000000000000e+00  -8.3840274928971767e-03 -3.9067644942416451e-04 0.0000000000000000e+00  -8.2826739199814547e-03 -2.9740465385186547e-04 0.0000000000000000e+00  -5.2935701735572112e-03 -3.2210675456034689e-04 0.0000000000000000e+00  -2.4552664553600567e-03 -3.3899513207409719e-04 0.0000000000000000e+00  3.0987652302010417e-04 -3.4766086339230688e-04 0.0000000000000000e+00  3.0767033267050654e-03 -3.4823672654513995e-04 0.0000000000000000e+00  5.9200477308282030e-03 -3.4137783014179842e-04 0.0000000000000000e+00  8.9175293404432834e-03 -3.2830997783833005e-04 0.0000000000000000e+00  9.0213319377483066e-03 -4.6697094088789433e-04 0.0000000000000000e+00  8.9192389939869426e-03 -6.0466782585254502e-04 0.0000000000000000e+00  6.4948988663899613e-03 -4.4576674574782786e-04 0.0000000000000000e+00  4.2393250357834053e-03 -2.9332820925848026e-04 0.0000000000000000e+00  2.0928859914481172e-03 -1.4547539950771158e-04 0.0000000000000000e+00  -1.5222620873225412e-11 -4.6792303652120916e-12 0.0000000000000000e+00  0.0000000000000000e+00 0.0000000000000000e+00 0.0000000000000000e+00  -1.8696214847511148e-03 -1.5573552119191693e-05 0.0000000000000000e+00  -3.7914312600259956e-03 -2.9066797518948883e-05 0.0000000000000000e+00  -5.8192669091428608e-03 -3.8203102738902936e-05 0.0000000000000000e+00  -8.0102501804914881e-03 -4.0308396018088799e-05 0.0000000000000000e+00  -8.1099171697107640e-03 -3.9540780593926337e-04 0.0000000000000000e+00  -8.0102482843698412e-03 -7.5153514378779353e-04 0.0000000000000000e+00  -5.1010511710283179e-03 -7.4094772774605704e-04 0.0000000000000000e+00  -2.3392365026477418e-03 -7.3732673478533084e-04 0.0000000000000000e+00  3.5103036983865743e-04 -7.3992704971095967e-04 0.0000000000000000e+00  3.0433043569174471e-03 -7.4871687705802892e-04 0.0000000000000000e+00  5.8111543849085666e-03 -7.6436420643909272e-04 0.0000000000000000e+00  8.7304606757547601e-03 -7.8825013973377609e-04 0.0000000000000000e+00  8.8309527526723493e-03 -4.7032782934431131e-04 0.0000000000000000e+00  8.7284929784081349e-03 -1.5192306078025663e-04 0.0000000000000000e+00  6.3546555754930394e-03 -1.1963762661224546e-04 0.0000000000000000e+00  4.1467923542839310e-03 -8.2278627417123397e-05 0.0000000000000000e+00  2.0468306821501640e-03 -4.1856301526048115e-05 0.0000000000000000e+00  0.0000000000000000e+00 0.0000000000000000e+00 0.0000000000000000e+00  0.0000000000000000e+00 0.0000000000000000e+00 0.0000000000000000e+00  -1.5940476359969956e-03 7.7997628044909623e-05 0.0000000000000000e+00  -3.2329464927366531e-03 1.6097231666615944e-04 0.0000000000000000e+00  -4.9628259035539423e-03 2.5410529903243322e-04 0.0000000000000000e+00  -6.8322923324551886e-03 3.6300121605123263e-04 0.0000000000000000e+00  -6.9180983453807510e-03 -4.0401178343463218e-04 0.0000000000000000e+00  -6.8329812730880323e-03 -1.1719753684005683e-03 0.0000000000000000e+00  -4.3228568590963608e-03 -1.1320747921722883e-03 0.0000000000000000e+00  -1.9387872986019441e-03 -1.1109151050341145e-03 0.0000000000000000e+00  3.8426190212279714e-04 -1.1075773639325436e-03 0.0000000000000000e+00  2.7095973731058724e-03 -1.1219185352007281e-03 0.0000000000000000e+00  5.1005514250705699e-03 -1.1545680072872382e-03 0.0000000000000000e+00  7.6222382537945357e-03 -1.2069329875290791e-03 0.0000000000000000e+00  7.7068420293410324e-03 -4.6849848672364709e-04 0.0000000000000000e+00  7.6163807508087492e-03 2.7013868205921944e-04 0.0000000000000000e+00  5.5470222885245042e-03 1.8616932589324888e-04 0.0000000000000000e+00  3.6205721235520625e-03 1.1649547807856024e-04 0.0000000000000000e+00  1.7873047270440244e-03 5.6003656280170750e-05 0.0000000000000000e+00  0.0000000000000000e+00 0.0000000000000000e+00 0.0000000000000000e+00  0.0000000000000000e+00 0.0000000000000000e+00 0.0000000000000000e+00  -1.1379713651875044e-03 1.5168400835754799e-04 0.0000000000000000e+00  -2.3083732168468481e-03 3.1039514929475753e-04 0.0000000000000000e+00  -3.5445434796380687e-03 4.8337009720114021e-04 0.0000000000000000e+00  -4.8814568821381960e-03 6.7827993516992701e-04 0.0000000000000000e+00  -4.9444130665634752e-03 -4.1596793349653755e-04 0.0000000000000000e+00  -4.8835810360390655e-03 -1.5109889800263257e-03 0.0000000000000000e+00  -3.0441698278966178e-03 -1.4485894164265563e-03 0.0000000000000000e+00  -1.2959447350618608e-03 -1.4135650779989269e-03 0.0000000000000000e+00  4.0851209981793406e-04 -1.4048643648162113e-03 0.0000000000000000e+00  2.1154493835564316e-03 -1.4222471721573164e-03 0.0000000000000000e+00  3.8711454263419607e-03 -1.4662841835183357e-03 0.0000000000000000e+00  5.7231044744182015e-03 -1.5383585270200056e-03 0.0000000000000000e+00  5.7824375312289728e-03 -4.6317954582205241e-04 0.0000000000000000e+00  5.7134609753719942e-03 6.1199268848286773e-04 0.0000000000000000e+00  4.1643022831054366e-03 4.3478609345079001e-04 0.0000000000000000e+00  2.7195291328545330e-03 2.7854379724335414e-04 0.0000000000000000e+00  1.3429394775281982e-03 1.3591938895788586e-04 0.0000000000000000e+00  0.0000000000000000e+00 0.0000000000000000e+00 0.0000000000000000e+00  0.0000000000000000e+00 0.0000000000000000e+00 0.0000000000000000e+00  -5.5088622871566847e-04 1.9728780090201136e-04 0.0000000000000000e+00  -1.1183880704720402e-03 4.0278254553990976e-04 0.0000000000000000e+00  -1.7196354887512001e-03 6.2490536854365852e-04 0.0000000000000000e+00  -2.3725422970864206e-03 8.7251246306131519e-04 0.0000000000000000e+00  -2.4064831682379987e-03 -4.3020788678330385e-04 0.0000000000000000e+00  -2.3763420677794861e-03 -1.7334029381220781e-03 0.0000000000000000e+00  -1.4043992407535234e-03 -1.6559762303307451e-03 0.0000000000000000e+00  -4.7968572958447024e-04 -1.6112975560386605e-03 0.0000000000000000e+00  4.2300294681897312e-04 -1.5981992896779828e-03 0.0000000000000000e+00  1.3282686010246232e-03 -1.6163494874811299e-03 0.0000000000000000e+00  2.2607397866135541e-03 -1.6662513281001825e-03 0.0000000000000000e+00  3.2457020037469837e-03 -1.7492446316273601e-03 0.0000000000000000e+00  3.2737167992391895e-03 -4.5557628893636579e-04 0.0000000000000000e+00  3.232