<?xml version="1.0"?>
<VTKFile type="UnstructuredGrid"  version="0.1"  >
<UnstructuredGrid>
<Piece  NumberOfPoints="589" NumberOfCells="1080">
<Points>
<DataArray  type="Float64"  NumberOfComponents="3"  format="ascii">-9 0 0  -8 0 0  -7 0 0  -6 0 0  -5 0 0  -4 0 0  -3 0 0  -2 0 0  -1 0 0  0 0 0  1 0 0  2 0 0  3 0 0  4 0 0  5 0 0  6 0 0  7 0 0  8 0 0  9 0 0  -9 2 0  -8.000007806792839 1.999987927176401 0  -7.000016386754906 1.999977371379997 0  -6.000027583209655 1.999969567981287 0  -5.000045630287146 1.999965069710449 0  -4.000026690895456 1.999973790652443 0  -3.000007232462358 1.999982224951887 0  -1.999997809956937 1.999990208842501 0  -0.9999963852350281 1.999996517338535 0  5.32105036746152e-08 1.999999262722606 0  0.9999961700549521 1.999997280244108 0  1.999996509772656 1.999991024084581 0  3.00000413653694 1.999983346818562 0  4.000020029864645 1.999975090144915 0  5.000043147735943 1.999971567957262 0  6.000026151342636 1.999972810299314 0  7.000015608210966 1.999979049043143 0  8.000007468889736 1.99998866455356 0  9 2 0  -9.000000000004983 4 0  -8.000012520728706 3.999969787082482 0  -7.000022307596614 3.999943733790237 0  -6.000027763842334 3.999925915790459 0  -5.000029228117568 3.999920220951655 0  -4.000001417317848 3.999924245615104 0  -2.999982805267916 3.999948222298106 0  -1.999978078451609 3.999979492271278 0  -0.9999854023654779 4.000004655039241 0  7.263551810637078e-07 4.000014735996871 0  0.9999865907719553 4.000006614979303 0  1.999978384725208 3.999984886140018 0  2.999982320458272 3.999955468594944 0  4.000000307747123 3.999925777701463 0  5.000027823739111 3.999915490449604 0  6.000026489436476 3.999925635590919 0  7.000021600930795 3.999944591977593 0  8.000012255670605 3.999970450352087 0  9 4 0  -9 6 0  -8.000028169043439 5.999935012668725 0  -7.000045550847338 5.999877158911032 0  -6.000043912321241 5.999833774721369 0  -5.00002088510797 5.999811902175041 0  -3.999966285372573 5.999847454919204 0  -2.9999414981943 5.999921982599503 0  -1.999951393906555 6.000000164076351 0  -0.9999760029082502 6.000043661700229 0  -9.673227601272339e-07 6.000052318792816 0  0.9999765209161325 6.000038021867781 0  1.999959324996695 5.999998583748442 0  2.999952872150439 5.999931941940861 0  3.999965909689088 5.999862729371756 0  5.000012926976706 5.99982814231172 0  6.00004104428767 5.999843219587823 0  7.000045419472595 5.999882531209333 0  8.000028682344499 5.999937475099403 0  9 6 0  -9 8 0  -8.00008695404717 7.999871723558861 0  -7.000144867969496 7.999752726686259 0  -6.000145611027532 7.999655607836672 0  -5.000065097117034 7.999601125260608 0  -3.999959305194599 7.999765870839681 0  -2.999978616672146 7.999959549016078 0  -2.000018191903902 8.000054073399941 0  -1.000021567680916 8.00006502366338 0  1.997630878545475e-06 8.000068253092655 0  1.000019487251355 8.000077841129334 0  2.000011895655226 8.000037864633979 0  2.999965319571891 7.999969884816102 0  3.999949405202529 7.999801619775949 0  5.000054137064741 7.99961170292065 0  6.00015055251165 7.999663895519403 0  7.00015366975093 7.99975796385052 0  8.000092874809551 7.999874192825998 0  9 8 0  -9 10 0  -8.000261801473233 9.999771395205793 0  -7.000472763331326 9.999540904798586 0  -6.000572236576362 9.999307098022788 0  -5.000475722405429 9.999069631956786 0  -4.000308071934462 9.999601566674714 0  -3.000335171730326 10.00005899344455 0  -2.000267008239228 9.999980684701994 0  -1.000119668417535 9.999955544072636 0  -1.091097365651223e-05 9.999949388539127 0  1.000097165899715 9.999949795398161 0  2.000241405627056 9.999946654585139 0  3.000367910910394 10.00011283229699 0  4.000351350326066 9.999673415965098 0  5.00054406982706 9.999093468813889 0  6.000633038941471 9.999317234502723 0  7.000517432999857 9.999544846744415 0  8.000285297784114 9.999772656623191 0  9 10 0  -9 12 0  -8.00063955291516 11.99967877803915 0  -7.001245870541212 11.99934263316628 0  -6.001781376023001 11.99897372169096 0  -5.002199394979653 11.99854717311436 0  -4.002113758975529 11.99951680560602 0  -3.002190881247512 12.00047663283304 0  -2.001495623063072 12.00036173014099 0  -1.000723527673725 12.00030024085211 0  7.727013518546746e-05 12.00028956421441 0  1.000885171549811 12.00033182371571 0  2.001681717918152 12.00043891785845 0  3.00243023227924 12.00064050547799 0  4.002345772623882 11.999584259657 0  5.002401969584837 11.99851912295651 0  6.00193276430246 11.99895557106856 0  7.00134678184527 11.99933117469642 0  8.000690045674789 11.99967313243359 0  9 12 0  -9 14 0  -8.00114930809486 13.99964604323218 0  -7.002300724692079 13.99927575819089 0  -6.003457891394079 13.99887137639145 0  -5.004628343579976 13.99841230242795 0  -4.004640678855655 13.99954485420005 0  -3.004647282208548 14.00069164763979 0  -2.003033359078547 14.0005294742537 0  -1.001442957187355 14.0004419991381 0  0.0001372929831975268 14.00041828599982 0  1.001720027720137 14.00045487302298 0  2.003316844471717 14.00055372600803 0  3.004936677435018 14.00072018092693 0  4.004948175905231 13.99954264646216 0  5.004956207671005 13.99837223363564 0  6.003697265450327 13.9988380498887 0  7.002457778069424 13.99925254380335 0  8.001227178072888 13.9996342199099 0  9 14 0  -9 16 0  -8.00164935127456 15.99967874844024 0  -7.003330471631871 15.99934553938297 0  -6.005077871090795 15.99898820512195 0  -5.006931622370016 15.99859434415985 0  -4.006998119719401 15.9995586719346 0  -3.006935163004895 16.00051780408789 0  -2.004480340687651 16.00039946376635 0  -1.002123220772154 16.00032954801021 0  0.0001874704615202253 16.00030656693011 0  1.002500163240046 16.00032960885061 0  2.004863263071853 16.00039887786638 0  3.00732824080992 16.00051544805454 0  4.007398083399612 15.99951190561987 0  5.007336876860534 15.99850753256658 0  6.005379994342086 15.99892634394502 0  7.003530825972753 15.99930555198555 0  8.00174918901638 15.99965908559581 0  9 16 0  -9 18 0  -8.002020965780822 17.99975931685482 0  -7.004092687499676 17.99951195595981 0  -6.006268554214878 17.99925135825413 0  -5.008607183768266 17.99897122412473 0  -4.008707538010624 17.99956156650915 0  -3.008610541104471 18.00015105653624 0  -2.005540799935294 18.00007661203416 0  -1.00261975697103 18.00003025007008 0  0.0002295994586096291 18.00001163886031 0  1.003080545895406 18.00002030148042 0  2.006006256186399 18.00005565562832 0  3.009083391141438 18.00011686920592 0  4.00918584778425 17.99948903011617 0  5.009088219996065 17.99886291893143 0  6.006627338233034 17.99917339187485 0  7.004330899650461 17.99946146775754 0  8.002139776837035 17.99973450567273 0  9 18 0  -9 20 0  -8.002188308267741 19.99986657612763 0  -7.004435847614255 19.99973135429731 0  -6.006804109348766 19.99959273352193 0  -5.009359103453457 19.999449497127 0  -4.009473607575901 19.99956134581426 0  -3.009360201148741 19.9996722265681 0  -2.006011314772652 19.99964206606988 0  -1.002831833962516 19.99962060634826 0  0.0002653020324163018 19.99960827150649 0  1.003364007009391 19.9996048638903 0  2.006548172330201 19.99960958617696 0  3.009904804101709 19.99962098666353 0  4.010020774169458 19.99947777614261 0  5.009906375431986 19.99933570660516 0  6.007212240331134 19.9995101270077 0  7.00470683017395 19.99967758365788 0  8.002323469049605 19.99984008049996 0  8.999999999988367 19.9999999999934 0  -9 22 0  -8.002117567996853 21.99998100517077 0  -7.00429364874876 21.99996434616391 0  -6.0065885966898 21.99995258114891 0  -5.00906642981394 21.99994871812616 0  -4.009178534318891 21.99955657525237 0  -3.009067048462914 21.99916332800584 0  -2.005809139534489 21.99917293099837 0  -1.002716845027078 21.99917469755083 0  0.0002947429608358938 21.99916943063776 0  1.003307968535968 21.99915712555543 0  2.006405177543352 21.99913698523413 0  3.009671286665764 21.9991074052579 0  4.009783218068941 21.99947432497528 0  5.009668713608026 21.99984182032926 0  6.007037750072961 21.99987470226158 0  7.004591861619671 21.99991351336216 0  8.002266303482209 21.9999559147069 0  9 22 0  -9 24 0  -8.001811577587096 24.00008609453416 0  -7.003673445243045 24.00017776522083 0  -6.005637323269709 24.00028081756671 0  -5.00775767987959 24.00040153393934 0  -4.007854304167909 23.99954737586309 0  -3.007759171901061 23.99869218486345 0  -2.00494931031833 23.99873495125278 0  -1.002281241244414 23.99875674385424 0  0.000317759550191904 23.99875856277704 0  1.002918473251384 23.99874053595875 0  2.005591694143867 23.99870192413185 0  3.008410188318412 23.99864111482892 0  4.008504041983386 23.99947652915767 0  5.00840315800536 24.00031219058286 0  6.006118655935449 24.00021552729476 0  7.00399300884962 24.00013505567739 0  8.001970954360349 24.00006498542498 0  9 24 0  -9 26 0  -8.001303050234169 26.00016890671793 0  -7.002642497658467 26.00034567561225 0  -6.004055756354494 26.00053840277309 0  -5.005582052813458 26.00075567103259 0  -4.005653198742365 25.99953426113442 0  -3.005585295033759 25.9983120143506 0  -2.003526950074685 25.99838042577741 0  -1.001571465306164 25.99841825022672 0  0.000334126178766179 25.99842663872366 0  1.0022414746563 25.99840583650458 0  2.004202245638549 25.99835518414514 0  3.006269454392691 25.99827311482333 0  4.006334821683415 25.99948241560648 0  5.006258059329714 26.0006917297347 0  6.004559879603449 26.00049157825094 0  7.00297720336311 26.00031499748359 0  8.001469982388901 26.00015372877894 0  9 26 0  -9 28 0  -8.000647331118227 28.00022030087577 0  -7.001313388801077 28.00044977421203 0  -6.002017482644121 28.0006978307755 0  -5.002779784319939 28.0009743661897 0  -4.002818581656922 27.99951841732418 0  -3.002785022015829 27.99806197627108 0  -2.001697698916491 27.99814778742198 0  -1.000664177258584 27.99819703389971 0  0.0003436673313346619 27.99821100303049 0  1.001353271676822 27.99819005254823 0  2.002392084967568 27.99813361120434 0  3.003488269405949 27.99804017719915 0  4.003518508899005 27.9994906395001 0  5.003473279290075 28.00094103021722 0  6.002534713922542 28.00067336977951 0  7.001656831832652 28.00043372360689 0  8.00081863
[...]
<PointData  Vectors="f_42"> 
<DataArray  type="Float64"  Name="f_42"  NumberOfComponents="3" format="ascii">0.0000000000000000e+00 0.0000000000000000e+00 0.0000000000000000e+00  0.0000000000000000e+00 0.0000000000000000e+00 0.0000000000000000e+00  0.0000000000000000e+00 0.0000000000000000e+00 0.0000000000000000e+00  0.0000000000000000e+00 0.0000000000000000e+00 0.0000000000000000e+00  0.0000000000000000e+00 0.0000000000000000e+00 0.0000000000000000e+00  0.0000000000000000e+00 0.0000000000000000e+00 0.0000000000000000e+00  0.0000000000000000e+00 0.0000000000000000e+00 0.0000000000000000e+00  0.0000000000000000e+00 0.0000000000000000e+00 0.0000000000000000e+00  0.0000000000000000e+00 0.0000000000000000e+00 0.0000000000000000e+00  0.0000000000000000e+00 0.0000000000000000e+00 0.0000000000000000e+00  0.0000000000000000e+00 0.0000000000000000e+00 0.0000000000000000e+00  0.0000000000000000e+00 0.0000000000000000e+00 0.0000000000000000e+00  0.0000000000000000e+00 0.0000000000000000e+00 0.0000000000000000e+00  0.0000000000000000e+00 0.0000000000000000e+00 0.0000000000000000e+00  0.0000000000000000e+00 0.0000000000000000e+00 0.0000000000000000e+00  0.0000000000000000e+00 0.0000000000000000e+00 0.0000000000000000e+00  0.0000000000000000e+00 0.0000000000000000e+00 0.0000000000000000e+00  0.0000000000000000e+00 0.0000000000000000e+00 0.0000000000000000e+00  0.0000000000000000e+00 0.0000000000000000e+00 0.0000000000000000e+00  0.0000000000000000e+00 0.0000000000000000e+00 0.0000000000000000e+00  -7.8067928481988925e-06 -1.2072823597363828e-05 0.0000000000000000e+00  -1.6386754900715061e-05 -2.2628620003081604e-05 0.0000000000000000e+00  -2.7583209655940700e-05 -3.0432018713152589e-05 0.0000000000000000e+00  -4.5630287154603462e-05 -3.4930289552146372e-05 0.0000000000000000e+00  -2.6690895453386499e-05 -2.6209347557000150e-05 0.0000000000000000e+00  -7.2324623619360052e-06 -1.7775048112102530e-05 0.0000000000000000e+00  2.1900430650238953e-06 -9.7911574992365649e-06 0.0000000000000000e+00  3.6147649712002684e-06 -3.4826614648614335e-06 0.0000000000000000e+00  5.3210503674615205e-08 -7.3727739553510255e-07 0.0000000000000000e+00  -3.8299450470608288e-06 -2.7197558907254012e-06 0.0000000000000000e+00  -3.4902273448082568e-06 -8.9759154175526122e-06 0.0000000000000000e+00  4.1365369419251474e-06 -1.6653181439999765e-05 0.0000000000000000e+00  2.0029864645599420e-05 -2.4909855085660181e-05 0.0000000000000000e+00  4.3147735943368006e-05 -2.8432042738119018e-05 0.0000000000000000e+00  2.6151342633231240e-05 -2.7189700685631912e-05 0.0000000000000000e+00  1.5608210964179808e-05 -2.0950956857342337e-05 0.0000000000000000e+00  7.4688897296878950e-06 -1.1335446442162048e-05 0.0000000000000000e+00  0.0000000000000000e+00 0.0000000000000000e+00 0.0000000000000000e+00  -4.9820587634006413e-12 0.0000000000000000e+00 0.0000000000000000e+00  -1.2520728702829019e-05 -3.0212917519243685e-05 0.0000000000000000e+00  -2.2307596608882582e-05 -5.6266209763505820e-05 0.0000000000000000e+00  -2.7763842335356426e-05 -7.4084209541893498e-05 0.0000000000000000e+00  -2.9228117572548779e-05 -7.9779048342942167e-05 0.0000000000000000e+00  -1.4173178505594637e-06 -7.5754384895991117e-05 0.0000000000000000e+00  1.7194732083064260e-05 -5.1777701892493510e-05 0.0000000000000000e+00  2.1921548389895264e-05 -2.0507728723640562e-05 0.0000000000000000e+00  1.4597634522150762e-05 4.6550392412710512e-06 0.0000000000000000e+00  7.2635518106370777e-07 1.4735996872982371e-05 0.0000000000000000e+00  -1.3409228044685132e-05 6.6149793081474321e-06 0.0000000000000000e+00  -2.1615274791228084e-05 -1.5113859982386799e-05 0.0000000000000000e+00  -1.7679541724707635e-05 -4.4531405055970134e-05 0.0000000000000000e+00  3.0774712007985310e-07 -7.4222298536479278e-05 0.0000000000000000e+00  2.7823739105447521e-05 -8.4509550395885755e-05 0.0000000000000000e+00  2.6489436472238899e-05 -7.4364409079085759e-05 0.0000000000000000e+00  2.1600930796912538e-05 -5.5408022405887823e-05 0.0000000000000000e+00  1.2255670616957631e-05 -2.9549647914690623e-05 0.0000000000000000e+00  0.0000000000000000e+00 0.0000000000000000e+00 0.0000000000000000e+00  0.0000000000000000e+00 0.0000000000000000e+00 0.0000000000000000e+00  -2.8169043450469064e-05 -6.4987331281967698e-05 0.0000000000000000e+00  -4.5550847335415824e-05 -1.2284108896628714e-04 0.0000000000000000e+00  -4.3912321249337498e-05 -1.6622527862886991e-04 0.0000000000000000e+00  -2.0885107968152645e-05 -1.8809782495641012e-04 0.0000000000000000e+00  3.3714627428869164e-05 -1.5254508078895950e-04 0.0000000000000000e+00  5.8501805700966591e-05 -7.8017400493520761e-05 0.0000000000000000e+00  4.8606093444981823e-05 1.6407634725330129e-07 0.0000000000000000e+00  2.3997091750107705e-05 4.3661700229310713e-05 0.0000000000000000e+00  -9.6732276012723389e-07 5.2318792814512801e-05 0.0000000000000000e+00  -2.3479083867967323e-05 3.8021867784312345e-05 0.0000000000000000e+00  -4.0675003303768608e-05 -1.4162515599090703e-06 0.0000000000000000e+00  -4.7127849561997911e-05 -6.8058059132546290e-05 0.0000000000000000e+00  -3.4090310912345329e-05 -1.3727062824443146e-04 0.0000000000000000e+00  1.2926976707405935e-05 -1.7185768828046919e-04 0.0000000000000000e+00  4.1044287660920300e-05 -1.5678041217498896e-04 0.0000000000000000e+00  4.5419472590601798e-05 -1.1746879066694032e-04 0.0000000000000000e+00  2.8682344498201617e-05 -6.2524900598057311e-05 0.0000000000000000e+00  0.0000000000000000e+00 0.0000000000000000e+00 0.0000000000000000e+00  0.0000000000000000e+00 0.0000000000000000e+00 0.0000000000000000e+00  -8.6954047179934731e-05 -1.2827644113718207e-04 0.0000000000000000e+00  -1.4486796949624473e-04 -2.4727331374264536e-04 0.0000000000000000e+00  -1.4561102753052641e-04 -3.4439216333248654e-04 0.0000000000000000e+00  -6.5097117033547828e-05 -3.9887473938309985e-04 0.0000000000000000e+00  4.0694805401425050e-05 -2.3412916031547993e-04 0.0000000000000000e+00  2.1383327852577255e-05 -4.0450983923198268e-05 0.0000000000000000e+00  -1.8191903903013151e-05 5.4073399943308833e-05 0.0000000000000000e+00  -2.1567680916054490e-05 6.5023663383182023e-05 0.0000000000000000e+00  1.9976308785454745e-06 6.8253092652346636e-05 0.0000000000000000e+00  1.9487251356174859e-05 7.7841129324012479e-05 0.0000000000000000e+00  1.1895655224994194e-05 3.7864633967780882e-05 0.0000000000000000e+00  -3.4680428110471708e-05 -3.0115183893186484e-05 0.0000000000000000e+00  -5.0594797472903432e-05 -1.9838022404821543e-04 0.0000000000000000e+00  5.4137064736172884e-05 -3.8829707935617876e-04 0.0000000000000000e+00  1.5055251165142046e-04 -3.3610448059651527e-04 0.0000000000000000e+00  1.5366975093260600e-04 -2.4203614948797836e-04 0.0000000000000000e+00  9.2874809546763927e-05 -1.2580717400103634e-04 0.0000000000000000e+00  0.0000000000000000e+00 0.0000000000000000e+00 0.0000000000000000e+00  0.0000000000000000e+00 0.0000000000000000e+00 0.0000000000000000e+00  -2.6180147323786381e-04 -2.2860479420373154e-04 0.0000000000000000e+00  -4.7276333132440087e-04 -4.5909520141243157e-04 0.0000000000000000e+00  -5.7223657636270371e-04 -6.9290197720673697e-04 0.0000000000000000e+00  -4.7572240543101974e-04 -9.3036804321771900e-04 0.0000000000000000e+00  -3.0807193445674103e-04 -3.9843332527944380e-04 0.0000000000000000e+00  -3.3517173032705403e-04 5.8993444547219961e-05 0.0000000000000000e+00  -2.6700823923139099e-04 -1.9315298001405054e-05 0.0000000000000000e+00  -1.1966841753519561e-04 -4.4455927365239316e-05 0.0000000000000000e+00  -1.0910973656512226e-05 -5.0611460886750497e-05 0.0000000000000000e+00  9.7165899717457325e-05 -5.0204601842258703e-05 0.0000000000000000e+00  2.4140562705796557e-04 -5.3345414866531440e-05 0.0000000000000000e+00  3.6791091039487341e-04 1.1283229698785773e-04 0.0000000000000000e+00  3.5135032607086551e-04 -3.2658403490363585e-04 0.0000000000000000e+00  5.4406982706656584e-04 -9.0653118611299299e-04 0.0000000000000000e+00  6.3303894147785048e-04 -6.8276549728057880e-04 0.0000000000000000e+00  5.1743299985393377e-04 -4.5515325558153540e-04 0.0000000000000000e+00  2.8529778410690842e-04 -2.2734337681034982e-04 0.0000000000000000e+00  0.0000000000000000e+00 0.0000000000000000e+00 0.0000000000000000e+00  0.0000000000000000e+00 0.0000000000000000e+00 0.0000000000000000e+00  -6.3955291515884849e-04 -3.2122196084832593e-04 0.0000000000000000e+00  -1.2458705412110552e-03 -6.5736683372462996e-04 0.0000000000000000e+00  -1.7813760229993343e-03 -1.0262783090185595e-03 0.0000000000000000e+00  -2.1993949796492774e-03 -1.4528268856323606e-03 0.0000000000000000e+00  -2.1137589755309315e-03 -4.8319439397149930e-04 0.0000000000000000e+00  -2.1908812475134221e-03 4.7663283304300670e-04 0.0000000000000000e+00  -1.4956230630718619e-03 3.6173014099239446e-04 0.0000000000000000e+00  -7.2352767372484920e-04 3.0024085210443423e-04 0.0000000000000000e+00  7.7270135185467459e-05 2.8956421441519948e-04 0.0000000000000000e+00  8.8517154981074405e-04 3.3182371571402908e-04 0.0000000000000000e+00  1.6817179181490296e-03 4.3891785844789826e-04 0.0000000000000000e+00  2.4302322792386808e-03 6.4050547798208889e-04 0.0000000000000000e+00  2.3457726238863552e-03 -4.1574034299374571e-04 0.0000000000000000e+00  2.4019695848306885e-03 -1.4808770434819522e-03 0.0000000000000000e+00  1.9327643024596383e-03 -1.0444289314350133e-03 0.0000000000000000e+00  1.3467818452771502e-03 -6.6882530358484808e-04 0.0000000000000000e+00  6.9004567478525114e-04 -3.2686756642041795e-04 0.0000000000000000e+00  0.0000000000000000e+00 0.0000000000000000e+00 0.0000000000000000e+00  0.0000000000000000e+00 0.0000000000000000e+00 0.0000000000000000e+00  -1.1493080948656506e-03 -3.5395676781982757e-04 0.0000000000000000e+00  -2.3007246920786913e-03 -7.2424180911608211e-04 0.0000000000000000e+00  -3.4578913940814062e-03 -1.1286236085588260e-03 0.0000000000000000e+00  -4.6283435799806287e-03 -1.5876975720511871e-03 0.0000000000000000e+00  -4.6406788556558817e-03 -4.5514579993921508e-04 0.0000000000000000e+00  -4.6472822085470477e-03 6.9164763978921356e-04 0.0000000000000000e+00  -3.0333590785457643e-03 5.2947425369804005e-04 0.0000000000000000e+00  -1.4429571873540224e-03 4.4199913809349280e-04 0.0000000000000000e+00  1.3729298319752677e-04 4.1828599982021025e-04 0.0000000000000000e+00  1.7200277201355877e-03 4.5487302298492761e-04 0.0000000000000000e+00  3.3168444717196124e-03 5.5372600802946592e-04 0.0000000000000000e+00  4.9366774350183759e-03 7.2018092692172271e-04 0.0000000000000000e+00  4.9481759052237154e-03 -4.5735353784443319e-04 0.0000000000000000e+00  4.9562076710073623e-03 -1.6277663643587891e-03 0.0000000000000000e+00  3.6972654503224195e-03 -1.1619501113048507e-03 0.0000000000000000e+00  2.4577780694217269e-03 -7.4745619665424223e-04 0.0000000000000000e+00  1.2271780728821662e-03 -3.6578009009682785e-04 0.0000000000000000e+00  0.0000000000000000e+00 0.0000000000000000e+00 0.0000000000000000e+00  0.0000000000000000e+00 0.0000000000000000e+00 0.0000000000000000e+00  -1.6493512745569376e-03 -3.2125155977010656e-04 0.0000000000000000e+00  -3.3304716318731673e-03 -6.5446061702788033e-04 0.0000000000000000e+00  -5.0778710907943246e-03 -1.0117948780444938e-03 0.0000000000000000e+00  -6.9316223700153440e-03 -1.4056558401562532e-03 0.0000000000000000e+00  -6.9981197193979116e-03 -4.4132806539380598e-04 0.0000000000000000e+00  -6.9351630048956111e-03 5.1780408789597746e-04 0.0000000000000000e+00  -4.4803406876511246e-03 3.9946376635880033e-04 0.0000000000000000e+00  -2.1232207721543915e-03 3.2954801020402505e-04 0.0000000000000000e+00  1.8747046152022532e-04 3.0656693010519439e-04 0.0000000000000000e+00  2.5001632400454069e-03 3.2960885059984290e-04 0.0000000000000000e+00  4.8632630718511904e-03 3.9887786637251400e-04 0.0000000000000000e+00  7.3282408099241258e-03 5.1544805453146024e-04 0.0000000000000000e+00  7.3980833996082403e-03 -4.8809438011128880e-04 0.0000000000000000e+00  7.3368768605387965e-03 -1.4924674334255376e-03 0.0000000000000000e+00  5.3799943420878536e-03 -1.0736560549806263e-03 0.0000000000000000e+00  3.5308259727515256e-03 -6.9444801445453746e-04 0.0000000000000000e+00  1.7491890163852416e-03 -3.4091440419206436e-04 0.0000000000000000e+00  0.0000000000000000e+00 0.0000000000000000e+00 0.0000000000000000e+00  0.0000000000000000e+00 0.0000000000000000e+00 0.0000000000000000e+00  -2.0209657808044320e-03 -2.4068314516166987e-04 0.0000000000000000e+00  -4.0926874996750455e-03 -4.8804404018007962e-04 0.0000000000000000e+00  -6.2685542148769695e-03 -7.4864174587767080e-04 0.0000000000000000e+00  -8.6071837682679467e-03 -1.0287758752650171e-03 0.0000000000000000e+00  -8.7075380106179639e-03 -4.3843349085480733e-04 0.0000000000000000e+00  -8.6105411044717257e-03 1.5105653625353035e-04 0.0000000000000000e+00  -5.5407999352927919e-03 7.6612034146751295e-05 0.0000000000000000e+00  -2.6197569710320256e-03 3.0250070074653755e-05 0.0000000000000000e+00  2.2959945860962915e-04 1.1638860298882515e-05 0.0000000000000000e+00  3.0805458954065268e-03 2.0301480421442213e-05 0.0000000000000000e+00  6.0062561863946417e-03 5.5655628306771277e-05 0.0000000000000000e+00  9.0833911414385776e-03 1.1686920590033646e-04 0.0000000000000000e+00  9.1858477842484722e-03 -5.1096988384676217e-04 0.0000000000000000e+00  9.0882199960689962e-03 -1.1370810685958862e-03 0.0000000000000000e+00  6.6273382330342074e-03 -8.2660812516109129e-04 0.0000000000000000e+00  4.3308996504670154e-03 -5.3853224245505862e-04 0.0000000000000000e+00  2.1397768370300138e-03 -2.6549432726493630e-04 0.0000000000000000e+00  0.0000000000000000e+00 0.0000000000000000e+00 0.0000000000000000e+00  0.0000000000000000e+00 0.0000000000000000e+00 0.0000000000000000e+00  -2.1883082677308994e-03 -1.3342387238376695e-04 0.0000000000000000e+00  -4.4358476142547561e-03 -2.6864570269225408e-04 0.0000000000000000e+00  -6.8041093487688983e-03 -4.0726647803922391e-04 0.0000000000000000e+00  -9.3591034534563199e-03 -5.5050287299185320e-04 0.0000000000000000e+00  -9.4736075758988739e-03 -4.3865418572554515e-04 0.0000000000000000e+00  -9.3602011487437780e-03 -3.2777343190528097e-04 0.0000000000000000e+00  -6.0113147726516139e-03 -3.5793393011530672e-04 0.0000000000000000e+00  -2.8318339625161533e-03 -3.7939365173206253e-04 0.0000000000000000e+00  2.6530203241630182e-04 -3.9172849348174374e-04 0.0000000000000000e+00  3.3640070093914820e-03 -3.9513610970344347e-04 0.0000000000000000e+00  6.5481723302054321e-03 -3.9041382304800192e-04 0.0000000000000000e+00  9.9048041017105338e-03 -3.7901333648488849e-04 0.0000000000000000e+00  1.0020774169460237e-02 -5.2222385739511144e-04 0.0000000000000000e+00  9.9063754319844034e-03 -6.6429339484435506e-04 0.0000000000000000e+00  7.2122403311337081e-03 -4.8987299230763008e-04 0.0000000000000000e+00  4.7068301739489910e-03 -3.2241634211216912e-04 0.0000000000000000e+00  2.3234690495818958e-03 -1.5991950004773684e-04 0.0000000000000000e+00  -1.1634311072199620e-11 -6.5946186798380934e-12 0.0000000000000000e+00  0.0000000000000000e+00 0.0000000000000000e+00 0.0000000000000000e+00  -2.1175679968514849e-03 -1.8994829234248770e-05 0.0000000000000000e+00  -4.2936487487620616e-03 -3.5653836101415118e-05 0.0000000000000000e+00  -6.5885966898009520e-03 -4.7418851081989218e-05 0.0000000000000000e+00  -9.0664298139387471e-03 -5.1281873832340152e-05 0.0000000000000000e+00  -9.1785343188921890e-03 -4.4342474761441915e-04 0.0000000000000000e+00  -9.0670484629158249e-03 -8.3667199415725477e-04 0.0000000000000000e+00  -5.8091395344865284e-03 -8.2706900160772745e-04 0.0000000000000000e+00  -2.7168450270795507e-03 -8.2530244915472489e-04 0.0000000000000000e+00  2.9474296083589378e-04 -8.3056936226373981e-04 0.0000000000000000e+00  3.3079685359685314e-03 -8.4287444457281722e-04 0.0000000000000000e+00  6.4051775433512483e-03 -8.6301476588866342e-04 0.0000000000000000e+00  9.6712866657637595e-03 -8.9259474211562679e-04 0.0000000000000000e+00  9.7832180689436995e-03 -5.2567502470329765e-04 0.0000000000000000e+00  9.6687136080268708e-03 -1.5817967073859305e-04 0.0000000000000000e+00  7.0377500729589277e-03 -1.2529773841279439e-04 0.0000000000000000e+00  4.5918616196670122e-03 -8.6486637829355005e-05 0.0000000000000000e+00  2.2663034822019853e-03 -4.4085293092135999e-05 0.0000000000000000e+00  0.0000000000000000e+00 0.0000000000000000e+00 0.0000000000000000e+00  0.0000000000000000e+00 0.0000000000000000e+00 0.0000000000000000e+00  -1.8115775870878967e-03 8.6094534162119870e-05 0.0000000000000000e+00  -3.6734452430462403e-03 1.7776522084316304e-04 0.0000000000000000e+00  -5.6373232697140953e-03 2.8081756671369013e-04 0.0000000000000000e+00  -7.7576798795801760e-03 4.0153393932954262e-04 0.0000000000000000e+00  -7.8543041679082735e-03 -4.5262413689325411e-04 0.0000000000000000e+00  -7.7591719010605348e-03 -1.3078151365605469e-03 0.0000000000000000e+00  -4.9493103183272302e-03 -1.2650487472264842e-03 0.0000000000000000e+00  -2.2812412444148385e-03 -1.2432561457496301e-03 0.0000000000000000e+00  3.1775955019190400e-04 -1.2414372229669047e-03 0.0000000000000000e+00  2.9184732513824370e-03 -1.2594640412479073e-03 0.0000000000000000e+00  5.5916941438704827e-03 -1.2980758681363314e-03 0.0000000000000000e+00  8.4101883184087758e-03 -1.3588851710771210e-03 0.0000000000000000e+00  8.5040419833808754e-03 -5.2347084233089400e-04 0.0000000000000000e+00  8.4031580053586848e-03 3.1219058285673960e-04 0.0000000000000000e+00  6.1186559354511868e-03 2.1552729478074880e-04 0.0000000000000000e+00  3.9930088496185198e-03 1.3505567737666678e-04 0.0000000000000000e+00  1.9709543603489651e-03 6.4985424991067649e-05 0.0000000000000000e+00  0.0000000000000000e+00 0.0000000000000000e+00 0.0000000000000000e+00  0.0000000000000000e+00 0.0000000000000000e+00 0.0000000000000000e+00  -1.3030502341704441e-03 1.6890671792764951e-04 0.0000000000000000e+00  -2.6424976584679982e-03 3.4567561226175745e-04 0.0000000000000000e+00  -4.0557563544906996e-03 5.3840277307468023e-04 0.0000000000000000e+00  -5.5820528134526886e-03 7.5567103259245236e-04 0.0000000000000000e+00  -5.6531987423676013e-03 -4.6573886556402854e-04 0.0000000000000000e+00  -5.5852950337555683e-03 -1.6879856494032397e-03 0.0000000000000000e+00  -3.5269500746866545e-03 -1.6195742225895463e-03 0.0000000000000000e+00  -1.5714653061640945e-03 -1.5817497732695134e-03 0.0000000000000000e+00  3.3412617876617902e-04 -1.5733612763300286e-03 0.0000000000000000e+00  2.2414746562994495e-03 -1.5941634953944627e-03 0.0000000000000000e+00  4.2022456385510465e-03 -1.6448158548854244e-03 0.0000000000000000e+00  6.2694543926895864e-03 -1.7268851766758394e-03 0.0000000000000000e+00  6.3348216834150451e-03 -5.1758439351621286e-04 0.0000000000000000e+00  6.2580593297134005e-03 6.9172973470600846e-04 0.0000000000000000e+00  4.5598796034496732e-03 4.9157825092756855e-04 0.0000000000000000e+00  2.9772033631101247e-03 3.1499748360102811e-04 0.0000000000000000e+00  1.4699823889046013e-03 1.5372877896080805e-04 0.0000000000000000e+00  0.0000000000000000e+00 0.0000000000000000e+00 0.0000000000000000e+00  0.0000000000000000e+00 0.0000000000000000e+00 0.0000000000000000e+00  -6.4733111822596028e-04 2.2030087577120863e-04 0.0000000000000000e+00  -1.3133888010787881e-03 4.4977421203472751e-04 0.0000000000000000e+00  -2.0174826441233377e-03 6.9783077550130345e-04 0.0000000000000000e+00  -2.7797843199402305e-03 9.7436618969789569e-04 0.0000000000000000e+00  -2.8185816569276869e-03 -4.8158267583112602e-04 0.0000000000000000e+00  -2.7850220158275284e-03 -1.9380237289484742e-03 0.0000000000000000e+00  -1.6976989164922932e-03 -1.8522125780380924e-03 0.0000000000000000e+00  -6.6417725858474341e-04 -1.8029661003012571e-03 0.0000000000000000e+00  3.4366733133466194e-04 -1.7889969695314837e-03 0.0000000000000000e+00  1.3532716768221229e-03 -1.8099474517617922e-03 0.0000000000000000e+00  2.3920849675700372e-03 -1.8663887956599015e-03 0.0000000000000000e+00  3.4882694059534328e-03 -1.9598228008470301e-03 0.0000000000000000e+00  3.5185088990021735e-03 -5.0936049989922666e-04 0.0000000000000000e+00  3.4