<?xml version="1.0"?>
<VTKFile type="UnstructuredGrid"  version="0.1"  >
<UnstructuredGrid>
<Piece  NumberOfPoints="589" NumberOfCells="1080">
<Points>
<DataArray  type="Float64"  NumberOfComponents="3"  format="ascii">-9 0 0  -8 0 0  -7 0 0  -6 0 0  -5 0 0  -4 0 0  -3 0 0  -2 0 0  -1 0 0  0 0 0  1 0 0  2 0 0  3 0 0  4 0 0  5 0 0  6 0 0  7 0 0  8 0 0  9 0 0  -9 2 0  -8.000008287291436 1.999987598224167 0  -7.000017399670887 1.999976712200769 0  -6.000029257530108 1.999968571117394 0  -5.000048234149422 1.999963708897402 0  -4.00002871536621 1.999972909057454 0  -3.000008591348537 1.999981569087028 0  -1.99999871123401 1.999989666846572 0  -0.9999969283058343 1.999996062325892 0  -1.975989242324476e-07 1.999998860308007 0  0.9999961804855805 1.999996905047739 0  1.999996772233366 1.999990660334154 0  3.000004655380971 1.999982989590142 0  4.000020804261563 1.99997474804773 0  5.000044175224564 1.999971289923271 0  6.00002670669147 1.99997258291256 0  7.000015894637512 1.999978889893202 0  8.000007590094746 1.99998858299439 0  9 2 0  -9 4 0  -8.0000132740256 3.999969134314375 0  -7.00002381746174 3.999942445294488 0  -6.000030039908971 3.999924027135436 0  -5.000032284665505 3.999917790629485 0  -4.0000039194975 3.999922010171459 0  -2.999984806325798 3.999946289324797 0  -1.999979645192875 3.999977910315355 0  -0.9999865925197431 4.000003336220925 0  -1.365475998052925e-07 4.000013571510698 0  0.9999860331898414 4.000005524586047 0  1.999978126604186 3.999983823028039 0  2.999982358877534 3.999954433614125 0  4.000000615097007 3.999924845763442 0  5.000028325071153 3.999914812819903 0  6.000026787232778 3.999925110453318 0  7.000021758973668 3.999944236265096 0  8.000012322011372 3.999970271366151 0  9 4 0  -9 6 0  -8.000029182037915 5.999933968018635 0  -7.000047519140288 5.999875098896702 0  -6.000046733080497 5.999830760337854 0  -5.000024442807544 5.999808026790385 0  -3.999969212226127 5.999843944321947 0  -2.999943972247654 5.999919071690673 0  -1.999953603379415 5.999997837367584 0  -0.9999780028680483 6.000041652448896 0  -2.71964930284509e-06 6.000050448363171 0  0.9999750745821957 6.000036190602219 0  1.999958222118108 5.999996792221706 0  2.999952075881873 5.999930243302611 0  3.999965370350242 5.999861207411497 0  5.000012655574752 5.999826946537918 0  6.000040829431152 5.999842328961112 0  7.000045256958918 5.999881949727468 0  8.000028592398721 5.999937189655969 0  9 6 0  -9 8 0  -8.00008845767672 7.999870169961249 0  -7.000147706020093 7.999749651420183 0  -6.000149438733109 7.999651094408517 0  -5.000069390125813 7.999595359249302 0  -3.999962807488118 7.999761303502811 0  -2.999982096124847 7.999956297659089 0  -2.000021738076895 8.000051405500022 0  -1.000024887533095 8.000062374184504 0  -9.038900825161522e-07 8.000065586758184 0  1.000017067361017 8.000075141894229 0  2.000009869594474 8.000035271042936 0  2.999963684994224 7.999967349886014 0  3.999948265573247 7.999799332245582 0  5.000053337122461 7.999609747625712 0  6.000149841874788 7.999662623370543 0  7.000153105902296 7.999757208978546 0  8.000092559169977 7.999873843283027 0  9 8 0  -9 10 0  -8.000264471672853 9.999769205732406 0  -7.000477848932779 9.999536481483863 0  -6.0005791681759 9.999300344873101 0  -5.000483466512724 9.999060384168518 0  -4.000314793491937 9.999595592285099 0  -3.000341785947307 10.00005581335761 0  -2.000272767695363 9.9999769402407 0  -1.000124219392593 9.999951622457129 0  -1.460920738325226e-05 9.999945437131988 0  1.000094191740011 9.999945872228366 0  2.000239011731402 9.99994283094267 0  3.000366652326444 10.00010864314224 0  4.000350921543884 9.999670137959797 0  5.000543283643196 9.999091576640692 0  6.000631603725156 9.99931624328476 0  7.000516063058132 9.999544365738283 0  8.000284487336927 9.999772465840715 0  9 10 0  -9 12 0  -8.000644405534731 11.99967613147338 0  -7.001255476500066 11.99933724775943 0  -6.001795536836417 11.99896539027093 0  -5.00221781741815 11.99853551997924 0  -4.002131980304398 11.99951029210826 0  -3.002209536917247 12.00047525547607 0  -2.001512981509976 12.0003588554466 0  -1.000739473818269 12.00029612451575 0  6.296188617446603e-05 12.00028436160802 0  1.000873001436904 12.00032561271369 0  2.001672610083226 12.0004317307718 0  3.002425787637014 12.00063235553974 0  4.002342370391353 11.9995805240562 0  5.002397734443804 11.99851992674751 0  6.001927757573094 11.99895641987957 0  7.001342634019238 11.99933184538755 0  8.000687739487867 11.99967349694569 0  9 12 0  -9 14 0  -8.001156734227811 13.99964330985746 0  -7.002315636348192 13.99927024126102 0  -6.003480441071292 13.99886297193452 0  -5.004658852891027 13.9984008475838 0  -4.004671494826414 13.99953859132179 0  -3.004678107788982 14.00069072932515 0  -2.003062786866602 14.00052644964628 0  -1.001471214611625 14.00043706839291 0  0.0001103548015391734 14.00041151980164 0  1.001694941967143 14.0004462428002 0  2.003294592301017 14.00054311922991 0  3.004918796144568 14.00070740660402 0  4.004931266662978 13.99953868194878 0  5.00493843422974 13.99837716488903 0  6.003682188974723 13.99884162306852 0  7.00244693589177 13.99925487313578 0  8.001221527235273 13.99963536990663 0  9 14 0  -9 16 0  -8.001659105992362 15.9996761294085 0  -7.003350068286363 15.99934030755601 0  -6.005107507819805 15.99898037973972 0  -5.006971658615561 15.99858397358228 0  -4.007038476253989 15.99955246951124 0  -3.006975416619543 16.00051578261825 0  -2.004520936693031 16.00039548825152 0  -1.002164399199296 16.00032351851373 0  0.0001457488695591681 16.00029834840812 0  1.002458208907719 16.00031900478335 0  2.004821677885106 16.0003856094081 0  3.007287962001478 16.00049913117507 0  4.007358414336529 15.99950784535933 0  5.007296685785054 15.99851579042556 0  6.0053487492061 15.99893217366537 0  7.003509493531578 15.99930927464118 0  8.001738376023857 15.99966089964885 0  9 16 0  -9 18 0  -8.002032695719137 17.99975678693795 0  -7.00411616642986 17.99950693122575 0  -6.006303827759422 17.99924391660247 0  -5.008654336721071 17.99896150223725 0  -4.008754862889054 17.99955533465143 0  -3.008657937425288 18.00014837145559 0  -2.005591592829648 18.00007207869004 0  -1.00267402044773 18.00002365416555 0  0.0001718338948474371 18.00000274578485 0  1.003019283210063 18.00000882961179 0  2.005941536256476 18.00004125083764 0  3.009015288812017 18.00009907812381 0  4.009117811416493 17.99948494010521 0  5.00902012083991 17.99887258236997 0  6.00657613002291 17.99918017977852 0  7.004296697923202 17.99946578321514 0  8.002122656992826 17.99973660225399 0  9 18 0  -9 20 0  -8.002201932950275 19.99986399367653 0  -7.004463021341103 19.99972622280487 0  -6.006844673842744 19.99958512541033 0  -5.009412802086672 19.99943953479089 0  -4.009527290504699 19.999555099492 0  -3.009414168196529 19.99966975966178 0  -2.006071984477698 19.99963782115175 0  -1.002899053136823 19.99961437178428 0  0.0001914579654895282 19.99959981935137 0  1.003283242067184 19.99959392886354 0  2.006459959948783 19.99959584538939 0  3.009808359236797 19.99960403903766 0  4.009923856537672 19.99947364501536 0  5.009809876739141 19.99934443685055 0  6.00714069602471 19.99951625400159 0  7.004659514980158 19.99968147454477 0  8.002299922855567 19.99984196902924 0  8.999999999998995 19.9999999999934 0  -9 22 0  -8.002133390180392 21.99997823463371 0  -7.004325152962465 21.99995881501819 0  -6.006635486170689 21.99994431201545 0  -5.009128218618391 21.99993775111217 0  -4.009240186269599 21.99955036468023 0  -3.009129140176118 21.99916194289566 0  -2.005880257329126 21.99916981261681 0  -1.002796705345944 21.99916972772096 0  0.0002059940768069549 21.99916247177903 0  1.003209771647599 21.99914800942484 0  2.006296546429204 21.99912550203562 0  3.009550764941684 21.99909329291976 0  4.009661812229885 21.99947010115321 0  5.009548100140164 21.99984753007095 0  6.00694886636254 21.99987869689989 0  7.004533333206908 21.99991604278859 0  8.002237252920432 21.99995713994832 0  9 22 0  -9 24 0  -8.001830164651203 24.00008309379421 0  -7.003710479607565 24.0001717401672 0  -6.005692503703213 24.00027172145865 0  -5.007830509791622 24.00038929474654 0  -4.00792700497754 23.99954128921682 0  -3.007832337766402 23.99869232276049 0  -2.005031956699217 23.99873342993954 0  -1.00237313649172 23.99875358668091 0  0.0002163369292074289 23.99875376731986 0  1.00280675273369 23.99873407428911 0  2.005468398088753 23.99869374208221 0  3.008273483581072 23.99863113165641 0  4.00836624008285 23.99947215982919 0  5.00826635229576 24.00031348441107 0  6.006018023366137 24.00021639024288 0  7.003926833351727 24.00013557998649 0  8.001938135388556 24.00006523232468 0  9 24 0  -9 26 0  -8.001324978239266 26.00016576754672 0  -7.002686287234185 26.00033934219041 0  -6.004121256875521 26.00052876231872 0  -5.005668999820347 26.00074254739307 0  -4.005740169900594 25.99952840357718 0  -3.00567260915276 25.99831349279156 0  -2.003621989987782 25.99838041692261 0  -1.001674254927027 25.9984169193172 0  0.0002231075019803763 25.99842412171028 0  1.00212130454413 25.99840224852218 0  2.004071542985543 25.99835062775143 0  3.006126334173131 25.99826768892492 0  4.006190605636056 25.99947786920427 0  5.006114849246164 26.00068811703639 0  6.004454450041659 26.00048894251188 0  7.002907835724965 26.00031327298959 0  8.001435569550596 26.00015287588435 0  9 26 0  -9 28 0  -8.000672888008504 28.00021724141868 0  -7.001364570703468 28.0004435800469 0  -6.00209441519103 28.00068834706358 0  -5.002882635792252 28.00096134964435 0  -4.002921732952474 27.99951288357866 0  -3.002888274923794 27.99806398856542 0  -2.001804973150676 27.99814863742063 0  -1.000775914734654 27.99819699236453 0  0.000226739198211699 27.99821031031082 0  1.001230141230486 27.99818893364597 0  2.00226144017564 27.99813229041638 0  3.00334846355736 27.99803889324441 0  4.003377790024271 27.99948591129505 0  5.003333397543587 28.00093291517997 0  6.002431444241968 28.00066750093142 0  7.001588751155235 28.00042991032086 0  8.00078482060459 2
[...]
<PointData  Vectors="f_42"> 
<DataArray  type="Float64"  Name="f_42"  NumberOfComponents="3" format="ascii">0.0000000000000000e+00 0.0000000000000000e+00 0.0000000000000000e+00  0.0000000000000000e+00 0.0000000000000000e+00 0.0000000000000000e+00  0.0000000000000000e+00 0.0000000000000000e+00 0.0000000000000000e+00  0.0000000000000000e+00 0.0000000000000000e+00 0.0000000000000000e+00  0.0000000000000000e+00 0.0000000000000000e+00 0.0000000000000000e+00  0.0000000000000000e+00 0.0000000000000000e+00 0.0000000000000000e+00  0.0000000000000000e+00 0.0000000000000000e+00 0.0000000000000000e+00  0.0000000000000000e+00 0.0000000000000000e+00 0.0000000000000000e+00  0.0000000000000000e+00 0.0000000000000000e+00 0.0000000000000000e+00  0.0000000000000000e+00 0.0000000000000000e+00 0.0000000000000000e+00  0.0000000000000000e+00 0.0000000000000000e+00 0.0000000000000000e+00  0.0000000000000000e+00 0.0000000000000000e+00 0.0000000000000000e+00  0.0000000000000000e+00 0.0000000000000000e+00 0.0000000000000000e+00  0.0000000000000000e+00 0.0000000000000000e+00 0.0000000000000000e+00  0.0000000000000000e+00 0.0000000000000000e+00 0.0000000000000000e+00  0.0000000000000000e+00 0.0000000000000000e+00 0.0000000000000000e+00  0.0000000000000000e+00 0.0000000000000000e+00 0.0000000000000000e+00  0.0000000000000000e+00 0.0000000000000000e+00 0.0000000000000000e+00  0.0000000000000000e+00 0.0000000000000000e+00 0.0000000000000000e+00  0.0000000000000000e+00 0.0000000000000000e+00 0.0000000000000000e+00  -8.2872914444295017e-06 -1.2401775832385073e-05 0.0000000000000000e+00  -1.7399670882575741e-05 -2.3287799230826614e-05 0.0000000000000000e+00  -2.9257530108942180e-05 -3.1428882606185875e-05 0.0000000000000000e+00  -4.8234149428177656e-05 -3.6291102599164423e-05 0.0000000000000000e+00  -2.8715366209179560e-05 -2.7090942546009374e-05 0.0000000000000000e+00  -8.5913485412711293e-06 -1.8430912971073492e-05 0.0000000000000000e+00  1.2887659914944799e-06 -1.0333153427875338e-05 0.0000000000000000e+00  3.0716941650837204e-06 -3.9376741078227652e-06 0.0000000000000000e+00  -1.9759892423244756e-07 -1.1396919936333002e-06 0.0000000000000000e+00  -3.8195144185037669e-06 -3.0949522603452354e-06 0.0000000000000000e+00  -3.2277666350730291e-06 -9.3396658441740135e-06 0.0000000000000000e+00  4.6553809736911457e-06 -1.7010409859849701e-05 0.0000000000000000e+00  2.0804261564115710e-05 -2.5251952270454507e-05 0.0000000000000000e+00  4.4175224564039459e-05 -2.8710076728394771e-05 0.0000000000000000e+00  2.6706691465056933e-05 -2.7417087440184456e-05 0.0000000000000000e+00  1.5894637511269514e-05 -2.1110106799185333e-05 0.0000000000000000e+00  7.5900947408991394e-06 -1.1417005610889601e-05 0.0000000000000000e+00  0.0000000000000000e+00 0.0000000000000000e+00 0.0000000000000000e+00  0.0000000000000000e+00 0.0000000000000000e+00 0.0000000000000000e+00  -1.3274025595896339e-05 -3.0865685625799546e-05 0.0000000000000000e+00  -2.3817461731568093e-05 -5.7554705513424081e-05 0.0000000000000000e+00  -3.0039908971800740e-05 -7.5972864566663158e-05 0.0000000000000000e+00  -3.2284665508675516e-05 -8.2209370512883150e-05 0.0000000000000000e+00  -3.9194975019460685e-06 -7.7989828541082858e-05 0.0000000000000000e+00  1.5193674200737732e-05 -5.3710675200536296e-05 0.0000000000000000e+00  2.0354807124405765e-05 -2.2089684646614851e-05 0.0000000000000000e+00  1.3407480256865095e-05 3.3362209263874750e-06 0.0000000000000000e+00  -1.3654759980529247e-07 1.3571510700234771e-05 0.0000000000000000e+00  -1.3966810158863644e-05 5.5245860529350230e-06 0.0000000000000000e+00  -2.1873395813642721e-05 -1.6176971960898643e-05 0.0000000000000000e+00  -1.7641122461417413e-05 -4.5566385874823011e-05 0.0000000000000000e+00  6.1509700317682594e-07 -7.5154236558385720e-05 0.0000000000000000e+00  2.8325071145555353e-05 -8.5187180096517245e-05 0.0000000000000000e+00  2.6787232773384253e-05 -7.4889546681065157e-05 0.0000000000000000e+00  2.1758973668040973e-05 -5.5763734903881214e-05 0.0000000000000000e+00  1.2322011385435619e-05 -2.9728633850895172e-05 0.0000000000000000e+00  0.0000000000000000e+00 0.0000000000000000e+00 0.0000000000000000e+00  0.0000000000000000e+00 0.0000000000000000e+00 0.0000000000000000e+00  -2.9182037920533354e-05 -6.6031981371647132e-05 0.0000000000000000e+00  -4.7519140285530673e-05 -1.2490110329733698e-04 0.0000000000000000e+00  -4.6733080503941229e-05 -1.6923966214479671e-04 0.0000000000000000e+00  -2.4442807542092892e-05 -1.9197320961136129e-04 0.0000000000000000e+00  3.0787773874753588e-05 -1.5605567804824735e-04 0.0000000000000000e+00  5.6027752347368775e-05 -8.0928309323448754e-05 0.0000000000000000e+00  4.6396620584954906e-05 -2.1626324194910223e-06 0.0000000000000000e+00  2.1997131952163923e-05 4.1652448896418111e-05 0.0000000000000000e+00  -2.7196493028450899e-06 5.0448363170623561e-05 0.0000000000000000e+00  -2.4925417804805387e-05 3.6190602221478324e-05 0.0000000000000000e+00  -4.1777881891703459e-05 -3.2077782973918014e-06 0.0000000000000000e+00  -4.7924118128272691e-05 -6.9756697384591509e-05 0.0000000000000000e+00  -3.4629649758400665e-05 -1.3879258850233581e-04 0.0000000000000000e+00  1.2655574752507575e-05 -1.7305346208405982e-04 0.0000000000000000e+00  4.0829431146040661e-05 -1.5767103888604606e-04 0.0000000000000000e+00  4.5256958916785618e-05 -1.1805027253196933e-04 0.0000000000000000e+00  2.8592398717799713e-05 -6.2810344031088641e-05 0.0000000000000000e+00  0.0000000000000000e+00 0.0000000000000000e+00 0.0000000000000000e+00  0.0000000000000000e+00 0.0000000000000000e+00 0.0000000000000000e+00  -8.8457676726311446e-05 -1.2983003875009338e-04 0.0000000000000000e+00  -1.4770602009434627e-04 -2.5034857981611684e-04 0.0000000000000000e+00  -1.4943873311032424e-04 -3.4890559148864126e-04 0.0000000000000000e+00  -6.9390125815593049e-05 -4.0464075068937693e-04 0.0000000000000000e+00  3.7192511882548839e-05 -2.3869649718542723e-04 0.0000000000000000e+00  1.7903875150385795e-05 -4.3702340912697699e-05 0.0000000000000000e+00  -2.1738076894419134e-05 5.1405500028751037e-05 0.0000000000000000e+00  -2.4887533094851873e-05 6.2374184509389032e-05 0.0000000000000000e+00  -9.0389008251615219e-07 6.5586758181058455e-05 0.0000000000000000e+00  1.7067361017827555e-05 7.5141894222287205e-05 0.0000000000000000e+00  9.8695944725692322e-06 3.5271042929301947e-05 0.0000000000000000e+00  -3.6315005777331949e-05 -3.2650113980938112e-05 0.0000000000000000e+00  -5.1734426753713120e-05 -2.0066775441699938e-04 0.0000000000000000e+00  5.3337122457592231e-05 -3.9025237429365440e-04 0.0000000000000000e+00  1.4984187479130345e-04 -3.3737662945612374e-04 0.0000000000000000e+00  1.5310590229574583e-04 -2.4279102146219586e-04 0.0000000000000000e+00  9.2559169969529437e-05 -1.2615671697414777e-04 0.0000000000000000e+00  0.0000000000000000e+00 0.0000000000000000e+00 0.0000000000000000e+00  0.0000000000000000e+00 0.0000000000000000e+00 0.0000000000000000e+00  -2.6447167285672082e-04 -2.3079426759222549e-04 0.0000000000000000e+00  -4.7784893277682741e-04 -4.6351851613534448e-04 0.0000000000000000e+00  -5.7916817589916429e-04 -6.9965512689453642e-04 0.0000000000000000e+00  -4.8346651272615157e-04 -9.3961583148735226e-04 0.0000000000000000e+00  -3.1479349193297499e-04 -4.0440771489711174e-04 0.0000000000000000e+00  -3.4178594730942659e-04 5.5813357606737153e-05 0.0000000000000000e+00  -2.7276769536548680e-04 -2.3059759302004468e-05 0.0000000000000000e+00  -1.2421939259393781e-04 -4.8377542870926328e-05 0.0000000000000000e+00  -1.4609207383252257e-05 -5.4562868028038456e-05 0.0000000000000000e+00  9.4191740013324768e-05 -5.4127771632447275e-05 0.0000000000000000e+00  2.3901173140353728e-04 -5.7169057338841128e-05 0.0000000000000000e+00  3.6665232644452790e-04 1.0864314223773409e-04 0.0000000000000000e+00  3.5092154389015500e-04 -3.2986204020704607e-04 0.0000000000000000e+00  5.4328364320163614e-04 -9.0842335930998617e-04 0.0000000000000000e+00  6.3160372516131143e-04 -6.8375671524168152e-04 0.0000000000000000e+00  5.1606305812898511e-04 -4.5563426171772270e-04 0.0000000000000000e+00  2.8448733692279380e-04 -2.2753415928444400e-04 0.0000000000000000e+00  0.0000000000000000e+00 0.0000000000000000e+00 0.0000000000000000e+00  0.0000000000000000e+00 0.0000000000000000e+00 0.0000000000000000e+00  -6.4440553472797730e-04 -3.2386852662084009e-04 0.0000000000000000e+00  -1.2554765000642400e-03 -6.6275224057033477e-04 0.0000000000000000e+00  -1.7955368364149082e-03 -1.0346097290602691e-03 0.0000000000000000e+00  -2.2178174181489503e-03 -1.4644800207521682e-03 0.0000000000000000e+00  -2.1319803043991885e-03 -4.8970789174291901e-04 0.0000000000000000e+00  -2.2095369172483053e-03 4.7525547607652369e-04 0.0000000000000000e+00  -1.5129815099761146e-03 3.5885544660051031e-04 0.0000000000000000e+00  -7.3947381826840837e-04 2.9612451574664752e-04 0.0000000000000000e+00  6.2961886174466025e-05 2.8436160802342096e-04 0.0000000000000000e+00  8.7300143690390128e-04 3.2561271368970512e-04 0.0000000000000000e+00  1.6726100832236692e-03 4.3173077179940402e-04 0.0000000000000000e+00  2.4257876370123699e-03 6.3235553973580892e-04 0.0000000000000000e+00  2.3423703913556118e-03 -4.1947594379337108e-04 0.0000000000000000e+00  2.3977344437954478e-03 -1.4800732524810191e-03 0.0000000000000000e+00  1.9277575730939618e-03 -1.0435801204275641e-03 0.0000000000000000e+00  1.3426340192441242e-03 -6.6815461245033688e-04 0.0000000000000000e+00  6.8773948786611809e-04 -3.2650305430773541e-04 0.0000000000000000e+00  0.0000000000000000e+00 0.0000000000000000e+00 0.0000000000000000e+00  0.0000000000000000e+00 0.0000000000000000e+00 0.0000000000000000e+00  -1.1567342278191763e-03 -3.5669014254361401e-04 0.0000000000000000e+00  -2.3156363481921234e-03 -7.2975873897671093e-04 0.0000000000000000e+00  -3.4804410712973004e-03 -1.1370280654796915e-03 0.0000000000000000e+00  -4.6588528910300100e-03 -1.5991524161977015e-03 0.0000000000000000e+00  -4.6714948264147370e-03 -4.6140867820300082e-04 0.0000000000000000e+00  -4.6781077889810297e-03 6.9072932515467527e-04 0.0000000000000000e+00  -3.0627868666012656e-03 5.2644964627237645e-04 0.0000000000000000e+00  -1.4712146116231427e-03 4.3706839290130110e-04 0.0000000000000000e+00  1.1035480153917343e-04 4.1151980163133033e-04 0.0000000000000000e+00  1.6949419671414717e-03 4.4624280020335178e-04 0.0000000000000000e+00  3.2945923010192901e-03 5.4311922990445387e-04 0.0000000000000000e+00  4.9187961445686804e-03 7.0740660401423213e-04 0.0000000000000000e+00  4.9312666629727775e-03 -4.6131805122774872e-04 0.0000000000000000e+00  4.9384342297438136e-03 -1.6228351109702805e-03 0.0000000000000000e+00  3.6821889747179950e-03 -1.1583769314820304e-03 0.0000000000000000e+00  2.4469358917706052e-03 -7.4512686423102955e-04 0.0000000000000000e+00  1.2215272352715091e-03 -3.6463009337509396e-04 0.0000000000000000e+00  0.0000000000000000e+00 0.0000000000000000e+00 0.0000000000000000e+00  0.0000000000000000e+00 0.0000000000000000e+00 0.0000000000000000e+00  -1.6591059923561473e-03 -3.2387059150571927e-04 0.0000000000000000e+00  -3.3500682863639511e-03 -6.5969244398766838e-04 0.0000000000000000e+00  -5.1075078198031774e-03 -1.0196202602691965e-03 0.0000000000000000e+00  -6.9716586155617990e-03 -1.4160264177326617e-03 0.0000000000000000e+00  -7.0384762539854300e-03 -4.4753048875627912e-04 0.0000000000000000e+00  -6.9754166195429550e-03 5.1578261825933652e-04 0.0000000000000000e+00  -4.5209366930296837e-03 3.9548825153287227e-04 0.0000000000000000e+00  -2.1643991992962015e-03 3.2351851372459478e-04 0.0000000000000000e+00  1.4574886955916812e-04 2.9834840811865073e-04 0.0000000000000000e+00  2.4582089077193675e-03 3.1900478334782200e-04 0.0000000000000000e+00  4.8216778851035849e-03 3.8560940809573957e-04 0.0000000000000000e+00  7.2879620014815825e-03 4.9913117506099997e-04 0.0000000000000000e+00  7.3584143365266240e-03 -4.9215464065176522e-04 0.0000000000000000e+00  7.2966857850588363e-03 -1.4842095744437864e-03 0.0000000000000000e+00  5.3487492061028265e-03 -1.0678263346302693e-03 0.0000000000000000e+00  3.5094935315786520e-03 -6.9072535882440693e-04 0.0000000000000000e+00  1.7383760238614391e-03 -3.3910035114265884e-04 0.0000000000000000e+00  0.0000000000000000e+00 0.0000000000000000e+00 0.0000000000000000e+00  0.0000000000000000e+00 0.0000000000000000e+00 0.0000000000000000e+00  -2.0326957191206308e-03 -2.4321306203001946e-04 0.0000000000000000e+00  -4.1161664298579913e-03 -4.9306877424169608e-04 0.0000000000000000e+00  -6.3038277594213519e-03 -7.5608339753967572e-04 0.0000000000000000e+00  -8.6543367210726932e-03 -1.0384977627486106e-03 0.0000000000000000e+00  -8.7548628890518725e-03 -4.4466534857598146e-04 0.0000000000000000e+00  -8.6579374252883957e-03 1.4837145561023016e-04 0.0000000000000000e+00  -5.5915928296474378e-03 7.2078690033871076e-05 0.0000000000000000e+00  -2.6740204477321591e-03 2.3654165547768904e-05 0.0000000000000000e+00  1.7183389484743710e-04 2.7457848462796301e-06 0.0000000000000000e+00  3.0192832100632257e-03 8.8296117828500483e-06 0.0000000000000000e+00  5.9415362564723927e-03 4.1250837631865934e-05 0.0000000000000000e+00  9.0152888120165007e-03 9.9078123786848680e-05 0.0000000000000000e+00  9.1178114164920925e-03 -5.1505989480164402e-04 0.0000000000000000e+00  9.0201208399123770e-03 -1.1274176300376036e-03 0.0000000000000000e+00  6.5761300229093440e-03 -8.1982022149855991e-04 0.0000000000000000e+00  4.2966979232074059e-03 -5.3421678485070386e-04 0.0000000000000000e+00  2.1226569928229039e-03 -2.6339774600062148e-04 0.0000000000000000e+00  0.0000000000000000e+00 0.0000000000000000e+00 0.0000000000000000e+00  0.0000000000000000e+00 0.0000000000000000e+00 0.0000000000000000e+00  -2.2019329502690026e-03 -1.3600632347097102e-04 0.0000000000000000e+00  -4.4630213411009567e-03 -2.7377719513653248e-04 0.0000000000000000e+00  -6.8446738427479000e-03 -4.1487458963187048e-04 0.0000000000000000e+00  -9.4128020866705731e-03 -5.6046520910247341e-04 0.0000000000000000e+00  -9.5272905046975640e-03 -4.4490050799084288e-04 0.0000000000000000e+00  -9.4141681965312814e-03 -3.3024033822101530e-04 0.0000000000000000e+00  -6.0719844776972081e-03 -3.6217884824212265e-04 0.0000000000000000e+00  -2.8990531368240915e-03 -3.8562821571601607e-04 0.0000000000000000e+00  1.9145796548952824e-04 -4.0018064861088834e-04 0.0000000000000000e+00  3.2832420671849252e-03 -4.0607113646442351e-04 0.0000000000000000e+00  6.4599599487879618e-03 -4.0415461062282216e-04 0.0000000000000000e+00  9.8083592367983093e-03 -3.9596096235522849e-04 0.0000000000000000e+00  9.9238565376735116e-03 -5.2635498464749162e-04 0.0000000000000000e+00  9.8098767391420795e-03 -6.5556314944638014e-04 0.0000000000000000e+00  7.1406960247085878e-03 -4.8374599841591645e-04 0.0000000000000000e+00  4.6595149801558671e-03 -3.1852545522134505e-04 0.0000000000000000e+00  2.2999228555477453e-03 -1.5803097076683782e-04 0.0000000000000000e+00  -1.0088278505326116e-12 -6.5946186798380934e-12 0.0000000000000000e+00  0.0000000000000000e+00 0.0000000000000000e+00 0.0000000000000000e+00  -2.1333901803907091e-03 -2.1765366299041174e-05 0.0000000000000000e+00  -4.3251529624683217e-03 -4.1184981831101519e-05 0.0000000000000000e+00  -6.6354861706871444e-03 -5.5687984541950805e-05 0.0000000000000000e+00  -9.1282186183903324e-03 -6.2248887818445352e-05 0.0000000000000000e+00  -9.2401862696005563e-03 -4.4963531975481305e-04 0.0000000000000000e+00  -9.1291401761205669e-03 -8.3805710432633968e-04 0.0000000000000000e+00  -5.8802573291235043e-03 -8.3018738316669989e-04 0.0000000000000000e+00  -2.7967053459440187e-03 -8.3027227903388124e-04 0.0000000000000000e+00  2.0599407680695487e-04 -8.3752822098976320e-04 0.0000000000000000e+00  3.2097716475984906e-03 -8.5199057516896829e-04 0.0000000000000000e+00  6.2965464292034073e-03 -8.7449796439957735e-04 0.0000000000000000e+00  9.5507649416835903e-03 -9.0670708024916124e-04 0.0000000000000000e+00  9.6618122298887631e-03 -5.2989884676651476e-04 0.0000000000000000e+00  9.5481001401652860e-03 -1.5246992905585042e-04 0.0000000000000000e+00  6.9488663625397141e-03 -1.2130310009883978e-04 0.0000000000000000e+00  4.5333332069035209e-03 -8.3957211391781923e-05 0.0000000000000000e+00  2.2372529204263067e-03 -4.2860051672115920e-05 0.0000000000000000e+00  0.0000000000000000e+00 0.0000000000000000e+00 0.0000000000000000e+00  0.0000000000000000e+00 0.0000000000000000e+00 0.0000000000000000e+00  -1.8301646511935253e-03 8.3093794208723037e-05 0.0000000000000000e+00  -3.7104796075670588e-03 1.7174016721563672e-04 0.0000000000000000e+00  -5.6925037032208373e-03 2.7172145866042290e-04 0.0000000000000000e+00  -7.8305097916138450e-03 3.8929474652565931e-04 0.0000000000000000e+00  -7.9270049775394032e-03 -4.5871078316816501e-04 0.0000000000000000e+00  -7.8323377664006079e-03 -1.3076772395139654e-03 0.0000000000000000e+00  -5.0319566992146243e-03 -1.2665700604550458e-03 0.0000000000000000e+00  -2.3731364917203191e-03 -1.2464133190870873e-03 0.0000000000000000e+00  2.1633692920742893e-04 -1.2462326801449700e-03 0.0000000000000000e+00  2.8067527336887166e-03 -1.2659257108859053e-03 0.0000000000000000e+00  5.4683980887557790e-03 -1.3062579177649475e-03 0.0000000000000000e+00  8.2734835810706099e-03 -1.3688683435805669e-03 0.0000000000000000e+00  8.3662400828454844e-03 -5.2784017081478204e-04 0.0000000000000000e+00  8.2663522957584570e-03 3.1348441106351688e-04 0.0000000000000000e+00  6.0180233661394017e-03 2.1639024290429375e-04 0.0000000000000000e+00  3.9268333517267946e-03 1.3557998647917302e-04 0.0000000000000000e+00  1.9381353885580923e-03 6.5232324696232170e-05 0.0000000000000000e+00  0.0000000000000000e+00 0.0000000000000000e+00 0.0000000000000000e+00  0.0000000000000000e+00 0.0000000000000000e+00 0.0000000000000000e+00  -1.3249782392664238e-03 1.6576754671731190e-04 0.0000000000000000e+00  -2.6862872341870078e-03 3.3934219042630972e-04 0.0000000000000000e+00  -4.1212568755208366e-03 5.2876231870592179e-04 0.0000000000000000e+00  -5.6689998203435042e-03 7.4254739307448787e-04 0.0000000000000000e+00  -5.7401699005948693e-03 -4.7159642280536869e-04 0.0000000000000000e+00  -5.6726091527561700e-03 -1.6865072084341721e-03 0.0000000000000000e+00  -3.6219899877834891e-03 -1.6195830773887161e-03 0.0000000000000000e+00  -1.6742549270258441e-03 -1.5830806827888805e-03 0.0000000000000000e+00  2.2310750198037627e-04 -1.5758782897191083e-03 0.0000000000000000e+00  2.1213045441301611e-03 -1.5977514777978450e-03 0.0000000000000000e+00  4.0715429855432651e-03 -1.6493722485952918e-03 0.0000000000000000e+00  6.1263341731295374e-03 -1.7323110750905185e-03 0.0000000000000000e+00  6.1906056360558062e-03 -5.2213079572501809e-04 0.0000000000000000e+00  6.1148492461632837e-03 6.8811703640549757e-04 0.0000000000000000e+00  4.4544500416616208e-03 4.8894251186575716e-04 0.0000000000000000e+00  2.9078357249657100e-03 3.1327298959655207e-04 0.0000000000000000e+00  1.4355695505970743e-03 1.5287588436398904e-04 0.0000000000000000e+00  0.0000000000000000e+00 0.0000000000000000e+00 0.0000000000000000e+00  0.0000000000000000e+00 0.0000000000000000e+00 0.0000000000000000e+00  -6.7288800850235926e-04 2.1724141869179951e-04 0.0000000000000000e+00  -1.3645707034691680e-03 4.4358004689928394e-04 0.0000000000000000e+00  -2.0944151910340350e-03 6.8834706357143258e-04 0.0000000000000000e+00  -2.8826357922524465e-03 9.6134964434515494e-04 0.0000000000000000e+00  -2.9217329524797537e-03 -4.8711642135400302e-04 0.0000000000000000e+00  -2.8882749237924121e-03 -1.9360114346117392e-03 0.0000000000000000e+00  -1.8049731506772574e-03 -1.8513625793799675e-03 0.0000000000000000e+00  -7.7591473465374479e-04 -1.8030076354794229e-03 0.0000000000000000e+00  2.2673919821169901e-04 -1.7896896891986356e-03 0.0000000000000000e+00  1.2301412304861993e-03 -1.8110663540190318e-03 0.0000000000000000e+00  2.2614401756416045e-03 -1.8677095836262543e-03 0.0000000000000000e+00  3.3484635573637327e-03 -1.9611067556037972e-03 0.0000000000000000e+00  3.3777900242689613e-03 -5.1408870495815446e-04 0.0000000000000000e+00  