<?xml version="1.0"?>
<VTKFile type="UnstructuredGrid"  version="0.1"  >
<UnstructuredGrid>
<Piece  NumberOfPoints="589" NumberOfCells="1080">
<Points>
<DataArray  type="Float64"  NumberOfComponents="3"  format="ascii">-9 0 0  -8 0 0  -7 0 0  -6 0 0  -5 0 0  -4 0 0  -3 0 0  -2 0 0  -1 0 0  0 0 0  1 0 0  2 0 0  3 0 0  4 0 0  5 0 0  6 0 0  7 0 0  8 0 0  9 0 0  -9 2 0  -8.000005477939672 1.999991249653187 0  -7.00001152523294 1.99998361335324 0  -6.000019492141774 1.999978000350717 0  -5.000032473623794 1.999974822715637 0  -4.000018776548957 1.999981037215941 0  -3.000004689373377 1.999987135298478 0  -1.999997895451965 1.999992942212519 0  -0.999996934023542 1.999997523200249 0  4.042952151989627e-07 1.999999483757101 0  0.9999975551572802 1.999997951951772 0  1.999997883369745 1.999993243421319 0  3.000003678080675 1.999987438790043 0  4.000015722278419 1.999981092998168 0  5.00003332890215 1.999978052809751 0  6.000020363159099 1.999979191186704 0  7.000012210529616 1.999984036955502 0  8.000005853912578 1.999991382452085 0  9 2 0  -9.000000000004983 4 0  -8.000008678379833 3.999978043564523 0  -7.000015372044891 3.999959133844465 0  -6.000018925946409 3.999946259411781 0  -5.000019600213099 3.999942277054739 0  -3.999999320733716 3.99994504084471 0  -2.999985750592638 3.999962477627055 0  -1.999982345221414 3.999985279437737 0  -0.9999877647769694 4.000003617227575 0  2.026764574352131e-06 4.000010875200717 0  0.999991656998735 4.000004690044934 0  1.999985715457616 3.999988396943153 0  2.999988818259675 3.999966314293661 0  4.000002397303674 3.999943854374363 0  5.000023071906456 3.999935487629808 0  6.000021473724766 3.999943553166076 0  7.000017236844372 3.999958075560435 0  8.00000969677115 3.999977677273566 0  9 4 0  -9 6 0  -8.000019817120405 5.999952652869298 0  -7.000031777877995 5.999910515286073 0  -6.000029878251628 5.999878952222751 0  -5.000012374436931 5.999863132350862 0  -3.999972372067917 5.99988890882817 0  -2.999954169327057 5.999943281964309 0  -1.999961308674359 6.000000405837132 0  -0.9999792865584102 6.000032261139097 0  2.370188699381832e-06 6.000038526808379 0  0.9999857475324836 6.000027785979323 0  1.999973036519849 5.999998305069026 0  2.99996835138611 5.999948517580229 0  3.999978190654213 5.999896660352895 0  5.000013222239438 5.999870323329367 0  6.000033139073047 5.999882089783579 0  7.000035475243578 5.999911799297573 0  8.000022165409039 5.999953090342313 0  9 6 0  -9 8 0  -8.000062374594178 7.999906434854255 0  -7.000103621202307 7.999819610018141 0  -6.000103244756158 7.999748683614722 0  -5.000043632750137 7.999708752686285 0  -3.999966189651361 7.99982878386798 0  -2.999979744070584 7.999970128375543 0  -2.00000825556834 8.000039471568165 0  -1.000010575629359 8.00004794736935 0  6.626120327408966e-06 8.000050510007108 0  1.000019244516569 8.000057526394864 0  2.000013403345668 8.000027505522331 0  2.999978847065479 7.999976504188894 0  3.999967075710379 7.999851078724603 0  5.000044809159989 7.999709655385032 0  6.000115118735843 7.999748870492282 0  7.000116287873565 7.99981920951037 0  8.000070047847771 7.99990603854562 0  9 8 0  -9 10 0  -8.000189391125874 9.999833298305184 0  -7.0003419001172 9.999665177186857 0  -6.00041349817324 9.999494542527612 0  -5.000342824978438 9.999321067681272 0  -4.000220307525438 9.999708010940804 0  -3.000239023012354 10.00004117137764 0  -2.00018884032878 9.999985599368028 0  -1.00008127045909 9.999967773820771 0  -1.481864084022548e-06 9.999963407598321 0  1.000078050877094 9.999963549053344 0  2.000184505526416 9.999960700814373 0  3.000277403643067 10.00008283829687 0  4.000264963331611 9.999755929680076 0  5.000408422603034 9.999324921437989 0  6.000473540770036 9.999491248362666 0  7.00038666130428 9.999660711710398 0  8.000213111636489 9.999830490173798 0  9 10 0  -9 12 0  -8.000463691691234 11.99976593031625 0  -7.000903422889851 11.99952095180129 0  -6.001292063200945 11.99925202923698 0  -5.001595902057343 11.99894100785337 0  -4.001533069800978 11.99964527137606 0  -3.001587967890987 12.00034235546529 0  -2.001074403614758 12.00026082753831 0  -1.000505548774274 12.00021808583398 0  8.354075528689682e-05 12.00021234317697 0  1.000676927437365 12.00024529614901 0  2.001260702600648 12.00032581752563 0  3.0018071897924 12.00047586820707 0  4.001744408302671 11.99968959338814 0  5.001787485472154 11.99889668033674 0  6.001439359388694 11.9992212963477 0  7.00100341747554 11.99950108599264 0  8.000514240439168 11.99975609857648 0  9 12 0  -9 14 0  -8.000833330951709 13.99974230004048 0  -7.00166850263892 13.99947267991621 0  -6.002508453008115 13.99917817031262 0  -5.003358978050848 13.99884374473849 0  -4.003367470623229 13.99966480281834 0  -3.003370852786761 14.0004960978341 0  -2.002182081706423 14.00038110016702 0  -1.001011161982551 14.00032056970207 0  0.0001515393879399293 14.00030665467109 0  1.001315059040577 14.00033696914887 0  2.00248754810044 14.00041310607252 0  3.003675036194066 14.00053913519832 0  4.003683140682636 13.99965867963362 0  5.00369076198016 13.99878336009499 0  6.002755132807929 13.99913107923839 0  7.00183234586193 13.9994408261909 0  8.000915142401427 13.9997262932824 0  9 14 0  -9 16 0  -8.001194922463105 15.99976641828992 0  -7.002413337669292 15.99952411019032 0  -6.003680722235403 15.99926419278914 0  -5.005026630294408 15.99897761277431 0  -4.005074768458189 15.99967403048161 0  -3.005027552504743 16.00036652192654 0  -2.003220151664709 16.00028406833273 0  -1.001484665705008 16.00023704883156 0  0.0002163426275524659 16.00022446418297 0  1.001918223534929 16.00024576541296 0  2.00365627100543 16.00030124143489 0  3.005467964789085 16.00039184037249 0  4.005519273390735 15.99963567724246 0  5.005475432626389 15.99887873713015 0  6.004017315307888 15.99919304908908 0  7.00263758916704 15.99947789458831 0  8.001306990396319 15.99974364024634 0  9 16 0  -9 18 0  -8.001461822085593 17.99982545948737 0  -7.002960999273741 17.99964604945891 0  -6.004536809485091 17.99945698284746 0  -5.006232372107603 17.99925366056552 0  -4.006305403966693 17.9996751502894 0  -3.006233453967769 18.00009586524505 0  -2.003972884287743 18.00004577410907 0  -1.001821324296112 18.00001627846764 0  0.0002776584093697887 18.00000721630471 0  1.002377780047415 18.00001834036465 0  2.004532683660791 18.00004934586078 0  3.00679855836888 18.00009976603993 0  4.006874208306485 17.99961822922445 0  5.006802966902636 17.99913781896436 0  6.0049633790106 17.99937307957463 0  7.003244712554419 17.99959148287838 0  8.001603479180529 17.99979857616333 0  9 18 0  -9 20 0  -8.001578633343572 19.99990396816302 0  -7.00320080026383 19.99980663428134 0  -6.004911697753662 19.99970683683163 0  -5.006759853968964 19.99960369260176 0  -4.006843324035517 19.9996738310298 0  -3.006759498654616 19.99974314079609 0  -2.004292221234604 19.99972544866476 0  -1.001948910577144 19.99971413627097 0  0.0003344038584089399 19.99970958702086 0  1.00261940675302 19.9997117432106 0  2.004967783276247 19.99972012194523 0  3.00744351758782 19.9997337756664 0  4.007529519333357 19.99960919105794 0  5.00744535357513 19.99948534082504 0  6.005423116337932 19.99962059743152 0  7.003540470231619 19.99975034004475 0  8.001748088778566 19.99987617991563 0  8.999999999982464 19.99999999999516 0  -9 22 0  -8.001520687725504 21.99998767415731 0  -7.003084349189674 21.9999770740402 0  -6.004735318996789 21.99997008628906 0  -5.006520645201067 21.99996892339728 0  -4.006602317588839 21.99966918847639 0  -3.006519971300404 21.99936856696004 0  -2.004118392950792 21.99937972359591 0  -1.001837772546806 21.9993850726305 0  0.000384418421264279 21.99938526853252 0  1.002608846668692 21.99938038045092 0  2.00489620333967 21.99936990347845 0  3.007309093798629 21.99935274784566 0  4.007392559842436 21.99960596048578 0  5.007307877377516 21.99985953701279 0  6.005321946058456 21.9998901627753 0  7.003473636407835 21.99992479371969 0  8.001714792411908 21.99996183424169 0  9 22 0  -9 24 0  -8.001290197250913 24.00006448092286 0  -7.002617291145366 24.00013306912563 0  -6.004019227124831 24.00021003931664 0  -5.005536006151004 24.00030001370444 0  -4.005606158311973 23.99966150850752 0  -3.005535836711557 23.99902219837389 0  -2.00346337607405 23.99905712387693 0  -1.001494130086017 23.99907652375885 0  0.0004255613689967045 23.99908118866322 0  1.002347949957827 23.99907127014234 0  2.004325323115227 23.99904628330815 0  3.006411450094065 23.99900510259244 0  4.006482012583026 23.99960718377273 0  5.006407098099984 24.00020941582025 0  6.004667858269938 24.00014368651095 0  7.003047490738763 24.00008959239147 0  8.001504630193367 24.00004297033888 0  9 24 0  -9 26 0  -8.000911372319406 26.00012487548417 0  -7.001849375782599 26.00025554718822 0  -6.002841382082865 26.00039798418482 0  -5.00391612301173 26.00055850989326 0  -4.00396732407544 25.99965130397084 0  -3.003917025657234 25.99874344190592 0  -2.002398064335633 25.99879638469686 0  -1.000953428707845 25.99882667383505 0  0.0004560297812448733 25.99883520016488 0  1.001868514989849 25.99882218604201 0  2.003322268972864 25.99878718260302 0  3.004856561558571 25.99872907086095 0  4.004906444857177 25.99961154651909 0  5.004849193884263 26.00049400141915 0  6.003535885231749 26.00035066136041 0  7.002309866658788 26.00022450246042 0  8.001140862830139 26.00010950396732 0  9 26 0  -9 28 0  -8.000425141952219 28.00016210382053 0  -7.000863849847345 28.00033097973187 0  -6.001330101528942 28.00051357657411 0  -5.00183853118715 28.00071720119636 0  -4.001865709833905 27.99963946534328 0  -3.00184073091475 27.99856130613314 0  -2.001037965219689 27.99862600143017 0  -1.000273162153766 27.99866361112291 0  0.0004745044842757747 27.99867511212723 0  1.001225380955248 27.9986607904185 0  2.001999852413569 27.99862024155686 0  3.002818861845187 27.99855236957539 0  4.002842996378436 27.99961806002057 0  5.002808981151923 28.00068364079362 0  6.002052306281832 28.00048891970498 0  7.001342652297615 28.00031478560418 0  8.00066
[...]
<PointData  Vectors="f_42"> 
<DataArray  type="Float64"  Name="f_42"  NumberOfComponents="3" format="ascii">0.0000000000000000e+00 0.0000000000000000e+00 0.0000000000000000e+00  0.0000000000000000e+00 0.0000000000000000e+00 0.0000000000000000e+00  0.0000000000000000e+00 0.0000000000000000e+00 0.0000000000000000e+00  0.0000000000000000e+00 0.0000000000000000e+00 0.0000000000000000e+00  0.0000000000000000e+00 0.0000000000000000e+00 0.0000000000000000e+00  0.0000000000000000e+00 0.0000000000000000e+00 0.0000000000000000e+00  0.0000000000000000e+00 0.0000000000000000e+00 0.0000000000000000e+00  0.0000000000000000e+00 0.0000000000000000e+00 0.0000000000000000e+00  0.0000000000000000e+00 0.0000000000000000e+00 0.0000000000000000e+00  0.0000000000000000e+00 0.0000000000000000e+00 0.0000000000000000e+00  0.0000000000000000e+00 0.0000000000000000e+00 0.0000000000000000e+00  0.0000000000000000e+00 0.0000000000000000e+00 0.0000000000000000e+00  0.0000000000000000e+00 0.0000000000000000e+00 0.0000000000000000e+00  0.0000000000000000e+00 0.0000000000000000e+00 0.0000000000000000e+00  0.0000000000000000e+00 0.0000000000000000e+00 0.0000000000000000e+00  0.0000000000000000e+00 0.0000000000000000e+00 0.0000000000000000e+00  0.0000000000000000e+00 0.0000000000000000e+00 0.0000000000000000e+00  0.0000000000000000e+00 0.0000000000000000e+00 0.0000000000000000e+00  0.0000000000000000e+00 0.0000000000000000e+00 0.0000000000000000e+00  0.0000000000000000e+00 0.0000000000000000e+00 0.0000000000000000e+00  -5.4779396825089493e-06 -8.7503468118564540e-06 0.0000000000000000e+00  -1.1525232935744119e-05 -1.6386646759628884e-05 0.0000000000000000e+00  -1.9492141774946294e-05 -2.1999649282455729e-05 0.0000000000000000e+00  -3.2473623802878302e-05 -2.5177284364837450e-05 0.0000000000000000e+00  -1.8776548955301742e-05 -1.8962784057495228e-05 0.0000000000000000e+00  -4.6893733808574268e-06 -1.2864701520869292e-05 0.0000000000000000e+00  2.1045480373368790e-06 -7.0577874811835319e-06 0.0000000000000000e+00  3.0659764572162810e-06 -2.4767997499309887e-06 0.0000000000000000e+00  4.0429521519896274e-07 -5.1624290070346330e-07 0.0000000000000000e+00  -2.4448427188808376e-06 -2.0480482268673655e-06 0.0000000000000000e+00  -2.1166302558410668e-06 -6.7565786791544650e-06 0.0000000000000000e+00  3.6780806777771058e-06 -1.2561209959249836e-05 0.0000000000000000e+00  1.5722278422144250e-05 -1.8907001832212242e-05 0.0000000000000000e+00  3.3328902149717543e-05 -2.1947190248933654e-05 0.0000000000000000e+00  2.0363159096455511e-05 -2.0808813295550512e-05 0.0000000000000000e+00  1.2210529612628660e-05 -1.5963044499687355e-05 0.0000000000000000e+00  5.8539125731911056e-06 -8.6175479164554765e-06 0.0000000000000000e+00  0.0000000000000000e+00 0.0000000000000000e+00 0.0000000000000000e+00  -4.9820587634006413e-12 0.0000000000000000e+00 0.0000000000000000e+00  -8.6783798282642208e-06 -2.1956435478540870e-05 0.0000000000000000e+00  -1.5372044884612900e-05 -4.0866155534200670e-05 0.0000000000000000e+00  -1.8925946408460274e-05 -5.3740588219860743e-05 0.0000000000000000e+00  -1.9600213105964860e-05 -5.7722945259179233e-05 0.0000000000000000e+00  6.7926628189464390e-07 -5.4959155289601707e-05 0.0000000000000000e+00  1.4249407360336696e-05 -3.7522372944010409e-05 0.0000000000000000e+00  1.7654778585509999e-05 -1.4720562263770136e-05 0.0000000000000000e+00  1.2235223030812159e-05 3.6172275749183456e-06 0.0000000000000000e+00  2.0267645743521313e-06 1.0875200721429476e-05 0.0000000000000000e+00  -8.3430012648639896e-06 4.6900449396960371e-06 0.0000000000000000e+00  -1.4284542384031264e-05 -1.1603056847375654e-05 0.0000000000000000e+00  -1.1181740321325627e-05 -3.3685706338592854e-05 0.0000000000000000e+00  2.3973036724016267e-06 -5.6145625635630751e-05 0.0000000000000000e+00  2.3071906450797787e-05 -6.4512370190861548e-05 0.0000000000000000e+00  2.1473724761064195e-05 -5.6446833921713911e-05 0.0000000000000000e+00  1.7236844373361990e-05 -4.1924439565334246e-05 0.0000000000000000e+00  9.6967711609729576e-06 -2.2322726435886279e-05 0.0000000000000000e+00  0.0000000000000000e+00 0.0000000000000000e+00 0.0000000000000000e+00  0.0000000000000000e+00 0.0000000000000000e+00 0.0000000000000000e+00  -1.9817120417304481e-05 -4.7347130708658177e-05 0.0000000000000000e+00  -3.1777877990624253e-05 -8.9484713926270545e-05 0.0000000000000000e+00  -2.9878251634704760e-05 -1.2104777724390043e-04 0.0000000000000000e+00  -1.2374436930618795e-05 -1.3686764913435962e-04 0.0000000000000000e+00  2.7627932084542536e-05 -1.1109117182341177e-04 0.0000000000000000e+00  4.5830672943813114e-05 -5.6718035687228212e-05 0.0000000000000000e+00  3.8691325641806759e-05 4.0583712680031907e-07 0.0000000000000000e+00  2.0713441589881255e-05 3.2261139099400274e-05 0.0000000000000000e+00  2.3701886993818323e-06 3.8526808374828221e-05 0.0000000000000000e+00  -1.4252467516752102e-05 2.7785979324376557e-05 0.0000000000000000e+00  -2.6963480150050330e-05 -1.6949309760671917e-06 0.0000000000000000e+00  -3.1648613891441715e-05 -5.1482419763904048e-05 0.0000000000000000e+00  -2.1809345785835760e-05 -1.0333964710512103e-04 0.0000000000000000e+00  1.3222239441383497e-05 -1.2967667063299405e-04 0.0000000000000000e+00  3.3139073040491890e-05 -1.1791021641798905e-04 0.0000000000000000e+00  3.5475243573998307e-05 -8.8200702425808182e-05 0.0000000000000000e+00  2.2165409039212026e-05 -4.6909657687889631e-05 0.0000000000000000e+00  0.0000000000000000e+00 0.0000000000000000e+00 0.0000000000000000e+00  0.0000000000000000e+00 0.0000000000000000e+00 0.0000000000000000e+00  -6.2374594186020003e-05 -9.3565145744324056e-05 0.0000000000000000e+00  -1.0362120230857926e-04 -1.8038998186058083e-04 0.0000000000000000e+00  -1.0324475615642524e-04 -2.5131638528260645e-04 0.0000000000000000e+00  -4.3632750138890720e-05 -2.9124731370502388e-04 0.0000000000000000e+00  3.3810348639089688e-05 -1.7121613201560688e-04 0.0000000000000000e+00  2.0255929414806674e-05 -2.9871624457678545e-05 0.0000000000000000e+00  -8.2555683403509742e-06 3.9471568168932416e-05 0.0000000000000000e+00  -1.0575629359217469e-05 4.7947369350520404e-05 0.0000000000000000e+00  6.6261203274089658e-06 5.0510007104210987e-05 0.0000000000000000e+00  1.9244516569479853e-05 5.7526394851309768e-05 0.0000000000000000e+00  1.3403345668308617e-05 2.7505522320756161e-05 0.0000000000000000e+00  -2.1152934522485079e-05 -2.3495811100992473e-05 0.0000000000000000e+00  -3.2924289622698754e-05 -1.4892127539421814e-04 0.0000000000000000e+00  4.4809159982870570e-05 -2.9034461497405735e-04 0.0000000000000000e+00  1.1511873584505395e-04 -2.5112950771831813e-04 0.0000000000000000e+00  1.1628787356554014e-04 -1.8079048963880352e-04 0.0000000000000000e+00  7.0047847765193605e-05 -9.3961454379082717e-05 0.0000000000000000e+00  0.0000000000000000e+00 0.0000000000000000e+00 0.0000000000000000e+00  0.0000000000000000e+00 0.0000000000000000e+00 0.0000000000000000e+00  -1.8939112587472353e-04 -1.6670169481172327e-04 0.0000000000000000e+00  -3.4190011719652393e-04 -3.3482281314400675e-04 0.0000000000000000e+00  -4.1349817324137366e-04 -5.0545747238323014e-04 0.0000000000000000e+00  -3.4282497844064668e-04 -6.7893231872980593e-04 0.0000000000000000e+00  -2.2030752543442683e-04 -2.9198905919278439e-04 0.0000000000000000e+00  -2.3902301235603828e-04 4.1171377637017241e-05 0.0000000000000000e+00  -1.8884032878301938e-04 -1.4400631967601051e-05 0.0000000000000000e+00  -8.1270459090564270e-05 -3.2226179229958450e-05 0.0000000000000000e+00  -1.4818640840225479e-06 -3.6592401688388672e-05 0.0000000000000000e+00  7.8050877096352158e-05 -3.6450946657315449e-05 0.0000000000000000e+00  1.8450552641835065e-04 -3.9299185631967782e-05 0.0000000000000000e+00  2.7740364306632731e-04 8.2838296864502566e-05 0.0000000000000000e+00  2.6496333161423944e-04 -2.4407031992371169e-04 0.0000000000000000e+00  4.0842260304079414e-04 -6.7507856201541507e-04 0.0000000000000000e+00  4.7354077004346231e-04 -5.0875163733286465e-04 0.0000000000000000e+00  3.8666130427895186e-04 -3.3928828959745310e-04 0.0000000000000000e+00  2.1311163647935545e-04 -1.6950982620233287e-04 0.0000000000000000e+00  0.0000000000000000e+00 0.0000000000000000e+00 0.0000000000000000e+00  0.0000000000000000e+00 0.0000000000000000e+00 0.0000000000000000e+00  -4.6369169123299761e-04 -2.3406968374599060e-04 0.0000000000000000e+00  -9.0342288985225349e-04 -4.7904819870759870e-04 0.0000000000000000e+00  -1.2920632009460527e-03 -7.4797076300528128e-04 0.0000000000000000e+00  -1.5959020573392121e-03 -1.0589921466306711e-03 0.0000000000000000e+00  -1.5330698009791875e-03 -3.5472862393907685e-04 0.0000000000000000e+00  -1.5879678909880288e-03 3.4235546528960396e-04 0.0000000000000000e+00  -1.0744036147579206e-03 2.6082753831666966e-04 0.0000000000000000e+00  -5.0554877427385670e-04 2.1808583397907663e-04 0.0000000000000000e+00  8.3540755286896817e-05 2.1234317697439744e-04 0.0000000000000000e+00  6.7692743736436360e-04 2.4529614900496737e-04 0.0000000000000000e+00  1.2607026006451335e-03 3.2581752562774034e-04 0.0000000000000000e+00  1.8071897923989005e-03 4.7586820705100205e-04 0.0000000000000000e+00  1.7444083026745818e-03 -3.1040661185044373e-04 0.0000000000000000e+00  1.7874854721474057e-03 -1.1033196632545086e-03 0.0000000000000000e+00  1.4393593886938905e-03 -7.7870365229825681e-04 0.0000000000000000e+00  1.0034174755471775e-03 -4.9891400736221396e-04 0.0000000000000000e+00  5.1424043916119136e-04 -2.4390142352255015e-04 0.0000000000000000e+00  0.0000000000000000e+00 0.0000000000000000e+00 0.0000000000000000e+00  0.0000000000000000e+00 0.0000000000000000e+00 0.0000000000000000e+00  -8.3333095171639923e-04 -2.5769995952406921e-04 0.0000000000000000e+00  -1.6685026389216511e-03 -5.2732008379401162e-04 0.0000000000000000e+00  -2.5084530081160052e-03 -8.2182968738391015e-04 0.0000000000000000e+00  -3.3589780508525378e-03 -1.1562552615153809e-03 0.0000000000000000e+00  -3.3674706232306099e-03 -3.3519718164925496e-04 0.0000000000000000e+00  -3.3708527867591484e-03 4.9609783409015852e-04 0.0000000000000000e+00  -2.1820817064219099e-03 3.8110016701228925e-04 0.0000000000000000e+00  -1.0111619825498219e-03 3.2056970205944409e-04 0.0000000000000000e+00  1.5153938793992933e-04 3.0665467108450514e-04 0.0000000000000000e+00  1.3150590405753069e-03 3.3696914888069082e-04 0.0000000000000000e+00  2.4875481004432089e-03 4.1310607251900800e-04 0.0000000000000000e+00  3.6750361940672931e-03 5.3913519830636422e-04 0.0000000000000000e+00  3.6831406826282483e-03 -3.4132036638592165e-04 0.0000000000000000e+00  3.6907619801650297e-03 -1.2166399050098737e-03 0.0000000000000000e+00  2.7551328079249478e-03 -8.6892076161750097e-04 0.0000000000000000e+00  1.8323458619275551e-03 -5.5917380910743279e-04 0.0000000000000000e+00  9.1514240142271058e-04 -2.7370671759876196e-04 0.0000000000000000e+00  0.0000000000000000e+00 0.0000000000000000e+00 0.0000000000000000e+00  0.0000000000000000e+00 0.0000000000000000e+00 0.0000000000000000e+00  -1.1949224630963533e-03 -2.3358171008690132e-04 0.0000000000000000e+00  -2.4133376692942539e-03 -4.7588980967517674e-04 0.0000000000000000e+00  -3.6807222354020013e-03 -7.3580721085111911e-04 0.0000000000000000e+00  -5.0266302944079397e-03 -1.0223872256941522e-03 0.0000000000000000e+00  -5.0747684581857440e-03 -3.2596951838013429e-04 0.0000000000000000e+00  -5.0275525047428380e-03 3.6652192655305728e-04 0.0000000000000000e+00  -3.2201516647104404e-03 2.8406833273486728e-04 0.0000000000000000e+00  -1.4846657050076300e-03 2.3704883155749727e-04 0.0000000000000000e+00  2.1634262755246595e-04 2.2446418296838703e-04 0.0000000000000000e+00  1.9182235349285476e-03 2.4576541295613386e-04 0.0000000000000000e+00  3.6562710054274905e-03 3.0124143488356443e-04 0.0000000000000000e+00  5.4679647890895971e-03 3.9184037247684902e-04 0.0000000000000000e+00  5.5192733907306951e-03 -3.6432275751814932e-04 0.0000000000000000e+00  5.4754326263956789e-03 -1.1212628698534378e-03 0.0000000000000000e+00  4.0173153078913318e-03 -8.0695091092193561e-04 0.0000000000000000e+00  2.6375891670374976e-03 -5.2210541169344239e-04 0.0000000000000000e+00  1.3069903963247856e-03 -2.5635975366459520e-04 0.0000000000000000e+00  0.0000000000000000e+00 0.0000000000000000e+00 0.0000000000000000e+00  0.0000000000000000e+00 0.0000000000000000e+00 0.0000000000000000e+00  -1.4618220855778469e-03 -1.7454051262751164e-04 0.0000000000000000e+00  -2.9609992737413566e-03 -3.5395054107008035e-04 0.0000000000000000e+00  -4.5368094850910526e-03 -5.4301715254799726e-04 0.0000000000000000e+00  -6.2323721076055138e-03 -7.4633943446161550e-04 0.0000000000000000e+00  -6.3054039666911301e-03 -3.2484971060579588e-04 0.0000000000000000e+00  -6.2334539677696499e-03 9.5865245062831984e-05 0.0000000000000000e+00  -3.9728842877422505e-03 4.5774109061664457e-05 0.0000000000000000e+00  -1.8213242961145858e-03 1.6278467639118322e-05 0.0000000000000000e+00  2.7765840936978874e-04 7.2163047073020698e-06 0.0000000000000000e+00  2.3777800474151425e-03 1.8340364650584834e-05 0.0000000000000000e+00  4.5326836607874560e-03 4.9345860769288118e-05 0.0000000000000000e+00  6.7985583688807685e-03 9.9766039918113838e-05 0.0000000000000000e+00  6.8742083064842327e-03 -3.8177077556882235e-04 0.0000000000000000e+00  6.8029669026361756e-03 -8.6218103566563099e-04 0.0000000000000000e+00  4.9633790106019156e-03 -6.2692042538685562e-04 0.0000000000000000e+00  3.2447125544248401e-03 -4.0851712161746627e-04 0.0000000000000000e+00  1.6034791805252823e-03 -2.0142383667281610e-04 0.0000000000000000e+00  0.0000000000000000e+00 0.0000000000000000e+00 0.0000000000000000e+00  0.0000000000000000e+00 0.0000000000000000e+00 0.0000000000000000e+00  -1.5786333435637537e-03 -9.6031836985435200e-05 0.0000000000000000e+00  -3.2008002638294498e-03 -1.9336571866071593e-04 0.0000000000000000e+00  -4.9116977536665845e-03 -2.9316316833775713e-04 0.0000000000000000e+00  -6.7598539689640528e-03 -3.9630739822676513e-04 0.0000000000000000e+00  -6.8433240355166040e-03 -3.2616897019453398e-04 0.0000000000000000e+00  -6.7594986546198185e-03 -2.5685920391592572e-04 0.0000000000000000e+00  -4.2922212346034501e-03 -2.7455133523197678e-04 0.0000000000000000e+00  -1.9489105771444944e-03 -2.8586372902624646e-04 0.0000000000000000e+00  3.3440385840893995e-04 -2.9041297911405956e-04 0.0000000000000000e+00  2.6194067530200238e-03 -2.8825678940338329e-04 0.0000000000000000e+00  4.9677832762519275e-03 -2.7987805477454390e-04 0.0000000000000000e+00  7.4435175878222563e-03 -2.6622433362019849e-04 0.0000000000000000e+00  7.5295193333594088e-03 -3.9080894208338627e-04 0.0000000000000000e+00  7.4453535751273720e-03 -5.1465917495823247e-04 0.0000000000000000e+00  5.4231163379303612e-03 -3.7940256849420699e-04 0.0000000000000000e+00  3.5404702316193344e-03 -2.4965995525243846e-04 0.0000000000000000e+00  1.7480887785442062e-03 -1.2382008438669754e-04 0.0000000000000000e+00  -1.7537543436669862e-11 -4.8331207370887845e-12 0.0000000000000000e+00  0.0000000000000000e+00 0.0000000000000000e+00 0.0000000000000000e+00  -1.5206877255005556e-03 -1.2325842687654281e-05 0.0000000000000000e+00  -3.0843491896780993e-03 -2.2925959802469956e-05 0.0000000000000000e+00  -4.7353189967901648e-03 -2.9913710933362158e-05 0.0000000000000000e+00  -6.5206452010656323e-03 -3.1076602712408890e-05 0.0000000000000000e+00  -6.6023175888389228e-03 -3.3081152359055538e-04 0.0000000000000000e+00  -6.5199713004055375e-03 -6.3143303995809948e-04 0.0000000000000000e+00  -4.1183929507890875e-03 -6.2027640406208057e-04 0.0000000000000000e+00  -1.8377725468070184e-03 -6.1492736948620956e-04 0.0000000000000000e+00  3.8441842126427897e-04 -6.1473146750602975e-04 0.0000000000000000e+00  2.6088466686921916e-03 -6.1961954909337284e-04 0.0000000000000000e+00  4.8962033396692337e-03 -6.3009652157665916e-04 0.0000000000000000e+00  7.3090937986283753e-03 -6.4725215434937341e-04 0.0000000000000000e+00  7.3925598424403292e-03 -3.9403951420254410e-04 0.0000000000000000e+00  7.3078773775158484e-03 -1.4046298720844761e-04 0.0000000000000000e+00  5.3219460584529995e-03 -1.0983722469166541e-04 0.0000000000000000e+00  3.4736364078308836e-03 -7.5206280297181080e-05 0.0000000000000000e+00  1.7147924119044790e-03 -3.8165758298715024e-05 0.0000000000000000e+00  0.0000000000000000e+00 0.0000000000000000e+00 0.0000000000000000e+00  0.0000000000000000e+00 0.0000000000000000e+00 0.0000000000000000e+00  -1.2901972509049005e-03 6.4480922855873255e-05 0.0000000000000000e+00  -2.6172911453683392e-03 1.3306912565606095e-04 0.0000000000000000e+00  -4.0192271248348276e-03 2.1003931664579536e-04 0.0000000000000000e+00  -5.5360061509962819e-03 3.0001370443633794e-04 0.0000000000000000e+00  -5.6061583119735381e-03 -3.3849149246292066e-04 0.0000000000000000e+00  -5.5358367115569311e-03 -9.7780162612423442e-04 0.0000000000000000e+00  -3.4633760740464558e-03 -9.4287612306581388e-04 0.0000000000000000e+00  -1.4941300860169028e-03 -9.2347624114789983e-04 0.0000000000000000e+00  4.2556136899670453e-04 -9.1881133678125887e-04 0.0000000000000000e+00  2.3479499578254932e-03 -9.2872985765776630e-04 0.0000000000000000e+00  4.3253231152300632e-03 -9.5371669182294763e-04 0.0000000000000000e+00  6.4114500940626439e-03 -9.9489740755858130e-04 0.0000000000000000e+00  6.4820125830186209e-03 -3.9281622726721382e-04 0.0000000000000000e+00  6.4070980999813955e-03 2.0941582025149884e-04 0.0000000000000000e+00  4.6678582699400629e-03 1.4368651097402331e-04 0.0000000000000000e+00  3.0474907387595868e-03 8.9592391463603387e-05 0.0000000000000000e+00  1.5046301933649921e-03 4.2970338890406863e-05 0.0000000000000000e+00  0.0000000000000000e+00 0.0000000000000000e+00 0.0000000000000000e+00  0.0000000000000000e+00 0.0000000000000000e+00 0.0000000000000000e+00  -9.1137231941080935e-04 1.2487548417154692e-04 0.0000000000000000e+00  -1.8493757826005695e-03 2.5554718822944387e-04 0.0000000000000000e+00  -2.8413820828623090e-03 3.9798418481094648e-04 0.0000000000000000e+00  -3.9161230117256817e-03 5.5850989326688711e-04 0.0000000000000000e+00  -3.9673240754436005e-03 -3.4869602915699166e-04 0.0000000000000000e+00  -3.9170256572310883e-03 -1.2565580940810592e-03 0.0000000000000000e+00  -2.3980643356337310e-03 -1.2036153031310230e-03 0.0000000000000000e+00  -9.5342870784448483e-04 -1.1733261649321083e-03 0.0000000000000000e+00  4.5602978124487331e-04 -1.1647998351175758e-03 0.0000000000000000e+00  1.8685149898489022e-03 -1.1778139579714500e-03 0.0000000000000000e+00  3.3222689728647594e-03 -1.2128173970052012e-03 0.0000000000000000e+00  4.8565615585687292e-03 -1.2709291390502536e-03 0.0000000000000000e+00  4.9064448571784726e-03 -3.8845348091160283e-04 0.0000000000000000e+00  4.8491938842596966e-03 4.9400141914970322e-04 0.0000000000000000e+00  3.5358852317484459e-03 3.5066136040538788e-04 0.0000000000000000e+00  2.3098666587871805e-03 2.2450246042039990e-04 0.0000000000000000e+00  1.1408628301458361e-03 1.0950396734550186e-04 0.0000000000000000e+00  0.0000000000000000e+00 0.0000000000000000e+00 0.0000000000000000e+00  0.0000000000000000e+00 0.0000000000000000e+00 0.0000000000000000e+00  -4.2514195221847115e-04 1.6210382053402604e-04 0.0000000000000000e+00  -8.6384984734745487e-04 3.3097973187793393e-04 0.0000000000000000e+00  -1.3301015289453847e-03 5.1357657410925413e-04 0.0000000000000000e+00  -1.8385311871497922e-03 7.1720119635110735e-04 0.0000000000000000e+00  -1.8657098339092612e-03 -3.6053465673402488e-04 0.0000000000000000e+00  -1.8407309147477834e-03 -1.4386938668872957e-03 0.0000000000000000e+00  -1.0379652196901624e-03 -1.3739985698568613e-03 0.0000000000000000e+00  -2.7316215376668864e-04 -1.3363888770916248e-03 0.0000000000000000e+00  4.7450448427577470e-04 -1.3248878728042508e-03 0.0000000000000000e+00  1.2253809552474305e-03 -1.3392095815010407e-03 0.0000000000000000e+00  1.9998524135704217e-03 -1.3797584431293659e-03 0.0000000000000000e+00  2.8188618451908368e-03 -1.4476304246036366e-03 0.0000000000000000e+00  2.8429963784334347e-03 -3.8193997944129855e-04 0.0000000000000000e+00  2.808