<?xml version="1.0"?>
<VTKFile type="UnstructuredGrid"  version="0.1"  >
<UnstructuredGrid>
<Piece  NumberOfPoints="589" NumberOfCells="1080">
<Points>
<DataArray  type="Float64"  NumberOfComponents="3"  format="ascii">-9 0 0  -8 0 0  -7 0 0  -6 0 0  -5 0 0  -4 0 0  -3 0 0  -2 0 0  -1 0 0  0 0 0  1 0 0  2 0 0  3 0 0  4 0 0  5 0 0  6 0 0  7 0 0  8 0 0  9 0 0  -9 2 0  -8.000007314211658 1.999988553195181 0  -7.00001535546755 1.999978556803602 0  -6.000025867119032 1.999971193466304 0  -5.000042861661347 1.999966996871653 0  -4.000024923314057 1.999975193952058 0  -3.000006507974419 1.999983189733468 0  -1.999997626187142 1.999990786823078 0  -0.9999963602978823 1.99999678938032 0  1.601504714230676e-07 1.999999393590969 0  0.9999963872042691 1.999997481689669 0  1.999996663521362 1.999991483101375 0  3.000003920265941 1.999984120016307 0  4.000019103723653 1.999976185133661 0  5.000041228934015 1.999972740733896 0  6.000025026861312 1.999973947353383 0  7.000014955579204 1.999979931179231 0  8.00000716183466 1.999989143398683 0  9 2 0  -9.000000000004983 4 0  -8.000011720089475 3.999971305494224 0  -7.000020829411108 3.999946581949292 0  -6.000025802601835 3.999929720268596 0  -5.000026963868773 3.99992443166333 0  -4.000000529849693 3.999928206590197 0  -2.999982869961426 3.999951030788338 0  -1.999978462655773 3.999980816298097 0  -0.9999855575528707 4.000004787604531 0  1.103199983080333e-06 4.00001436748468 0  0.9999875210164066 4.000006556749627 0  1.999979618435396 3.999985733617343 0  2.999983340385669 3.999957541019709 0  4.000000522269574 3.999929045275744 0  5.00002684373933 3.999919039942882 0  6.000025530377527 3.9999287864369 0  7.000020800776631 3.999946949666272 0  8.000011795675418 3.999971710179738 0  9 4 0  -9 6 0  -8.000026568076269 5.999938177750146 0  -7.000042847804206 5.999883163170208 0  -6.000040985728528 5.999841958208235 0  -5.000018720283775 5.999821286275798 0  -3.999966690037113 5.999855138770196 0  -2.999943102045817 5.999926187864904 0  -1.999952604887679 6.000000742934463 0  -0.9999761642402611 6.000042235561341 0  -8.73381737864018e-08 6.000050466033024 0  0.9999783089919921 6.000036757028534 0  1.999961779263427 5.999998976971616 0  2.999955547064575 5.99993513566294 0  3.999967986926965 5.999868792556238 0  5.000012937497628 5.999835525260595 0  6.000039698796191 5.999849961964682 0  7.000043746867381 5.999887582920852 0  8.000027590197346 5.999940163448056 0  9 6 0  -9 8 0  -8.000082558685309 7.999877836470861 0  -7.000137426597743 7.999764525006466 0  -6.00013777813336 7.999672082995604 0  -5.000060643177087 7.999620308301121 0  -3.99995973669005 7.999777368875293 0  -2.999978110500084 7.999962070571114 0  -2.000015846113311 8.000052281423839 0  -1.000019105909642 8.000062808641248 0  3.303761286621617e-06 8.000065927413857 0  1.000019874193922 8.000075094800829 0  2.000012487127713 8.000036762459361 0  2.999967827130119 7.999971614410625 0  3.999952490242234 7.999810457019041 0  5.000052636868864 7.999628573908922 0  6.000144706248387 7.999678427382375 0  7.000147495824727 7.999768398536458 0  8.000089104961731 7.999879608252151 0  9 8 0  -9 10 0  -8.000249222944333 9.999782159007221 0  -7.000449973480436 9.999562520667785 0  -6.000544424107753 9.99933972300755 0  -5.000452012366116 9.999113443086411 0  -4.000292074295189 9.999620620664652 0  -3.000317831431433 10.00005683016065 0  -2.00025286375102 9.999982392550468 0  -1.000112401975196 9.999958496538305 0  -8.657956766423063e-06 9.999952642839188 0  1.000094499558596 9.999953001852219 0  2.000232307060215 9.999949896871735 0  3.00035295443216 10.00010882496363 0  4.000336897482519 9.999687996323823 0  5.000521473625509 9.999132613979699 0  6.000606635834184 9.999346574607927 0  7.000495841776888 9.999564345230741 0  8.000273394321615 9.999782379036064 0  9 10 0  -9 12 0  -8.000609362306697 11.99969382484321 0  -7.001187042405651 11.9993734134173 0  -6.001697209287557 11.99902174553079 0  -5.002095350633728 11.99861510226291 0  -4.002013521763905 11.999539664174 0  -3.002086878400739 12.00045486175682 0  -2.001422217709298 12.00034579408646 0  -1.00068428043035 12.00028765370674 0  8.092969753571053e-05 12.0002779974696 0  1.000852684407138 12.00031889292772 0  2.001613182759594 12.00042174227876 0  3.002327094758172 12.00061492211776 0  4.002246033035817 11.99960277278022 0  5.002300225408621 11.99858208544819 0  6.001851414231839 11.99899983510212 0  7.001290312318938 11.99935945600326 0  8.0006611717955 11.99968693553687 0  9 12 0  -9 14 0  -8.001095375393808 13.99966260972954 0  -7.00219279410044 13.99930963330776 0  -6.003295751144816 13.99892410995975 0  -5.004411446744092 13.99848638071576 0  -4.004423051488412 13.99956629391056 0  -3.004429135777391 14.00065975353343 0  -2.002886295177189 14.00050580760413 0  -1.00136593972515 14.00042315909215 0  0.0001445823006061438 14.00040141062226 0  1.001657214038954 14.00043729853187 0  2.003182873833048 14.00053274227986 0  3.004729884207693 14.00069288159373 0  4.004740620919395 13.99956302975415 0  5.004748775563331 13.9984399514965 0  6.003543208792967 13.99888631415281 0  7.002355678559008 13.99928355363395 0  8.001176288524869 13.99964938356257 0  9 14 0  -9 16 0  -8.00157204946705 15.999693855036 0  -7.003174470139816 15.9993762865792 0  -6.004840241503199 15.99903566814557 0  -5.00660764881892 15.99866014648582 0  -4.006671009677778 15.99957938134632 0  -3.006610702143125 16.00049362825565 0  -2.004263474562503 16.00038158153325 0  -1.002009576842739 16.00031583195712 0  0.0001998906126860116 16.0002949745512 0  1.002411115314756 16.00031816920025 0  2.004670251235465 16.00038565007823 0  3.007026360617672 16.00049849164273 0  4.007092996987352 15.99953362866342 0  5.007034798255914 15.9985679303207 0  6.005159216444291 15.99896977164478 0  7.003386273784881 15.99933362919599 0  8.001677677709257 15.99967286500802 0  9 16 0  -9 18 0  -8.001926006983421 17.99977082488803 0  -7.003900539732835 17.99953526303621 0  -6.005974637263208 17.99928703850309 0  -5.008204334367178 17.99902011959166 0  -4.008300108470885 17.99958201626887 0  -3.008207263442229 18.00014306083094 0  -2.00527124977995 18.00007296012244 0  -1.002477306759664 18.00002975484338 0  0.0002481401313795893 18.00001314112136 0  1.002975101628815 18.00002269000471 0  2.005773491252938 18.0000578792108 0  3.008716552226025 18.00011795773704 0  4.008814540841354 17.9995116765225 0  5.008721318465888 17.99890701143529 0  6.00636049133348 17.99920547936822 0  7.004156854676518 17.99948238636875 0  8.002053887333448 17.9997448220186 0  9 18 0  -9 20 0  -8.002084722227158 19.99987332362214 0  -7.004226089304132 19.99974492238577 0  -6.006482909053768 19.99961325765251 0  -5.008918315104018 19.99947715500442 0  -4.009027674564037 19.99958162990004 0  -3.008919118275867 19.99968514757225 0  -2.005715185761067 19.99965734245296 0  -1.002673143459903 19.99963790753789 0  0.0002902777160772336 19.99962726123915 0  1.003255342464257 19.99962523544049 0  2.006302298246861 19.9996310961135 0  3.009514376940014 19.99964349122783 0  4.009625469347191 19.99950079861543 0  5.009516009572677 19.99935917111683 0  6.00692869406776 19.99952752366445 0  7.004522099968894 19.99968907476553 0  8.002232375405731 19.9998457918512 0  8.999999999980778 19.99999999999385 0  -9 22 0  -8.002015799401423 21.99998270225025 0  -7.004087570487648 21.99996763474035 0  -6.006273050777718 21.99995723918114 0  -5.008633492076294 21.99995438521856 0  -4.008740583965786 21.99957687974981 0  -3.008633828917152 21.99919829447517 0  -2.005516086487012 21.9992084423411 0  -1.002556617900027 21.9992111231465 0  0.0003258590965014053 21.99920711763955 0  1.003210176011826 21.99919643851313 0  2.00617517228645 21.99917834492259 0  3.009302157704612 21.99915132813991 0  4.009409554066312 21.99949739710123 0  5.009299842203816 21.99984400037199 0  6.006769859947103 21.99987676123343 0  7.004417369953476 21.99991507686061 0  8.002180274030211 21.99995675144642 0  9 22 0  -9 24 0  -8.001721891511762 24.00008316409201 0  -7.003491892657615 24.00017166362347 0  -6.005359483452868 24.00027105352559 0  -5.007376788828446 24.00038734341537 0  -4.007469056138749 23.99956791583765 0  -3.007377916119261 23.99874748230946 0  -2.004688304787074 23.99878923652211 0  -1.00213415613028 23.99881092095113 0  0.0003541991996517664 23.99881350490547 0  1.002844572078872 23.99879712470433 0  2.005404792987051 23.99876108793273 0  3.008104592442641 23.99870386761636 0  4.008194823827137 23.99949946729989 0  5.008098055521209 24.00029529240698 0  6.005897081980834 24.00020374859541 0  7.003848695875872 24.0001276184824 0  8.001899808449291 24.00006138929282 0  9 24 0  -9 26 0  -8.001234283243699 26.00016231023631 0  -7.002503372114845 26.00033215040506 0  -6.003843046829687 26.00051727480518 0  -5.005290833457383 26.00072590377406 0  -4.005358668285223 25.9995552541948 0  -3.005293573744416 25.99838378739825 0  -2.003322937870568 25.99844990642377 0  -1.001450452411077 25.9984867212365 0  0.0003746554071484326 25.99849534557528 0  1.002201899850427 25.99847602451307 0  2.004080817836363 25.99842813562348 0  3.006062249620161 25.99835018629356 0  4.006125298610521 25.99950514755635 0  5.006051586910516 26.00066010980152 0  6.004410020366537 26.00046907330889 0  7.002879644012223 26.00030056017621 0  8.001421899590657 26.00014667800101 0  9 26 0  -9 28 0  -8.000605978963549 28.00021136560813 0  -7.001229829507292 28.00043152132058 0  -6.001889979568062 28.00066948628618 0  -5.002605689733431 28.000934745342 0  -4.002642492197401 27.99954003450652 0  -3.002610286765253 27.9981448328585 0  -2.001569154576643 27.99822736829558 0  -1.000579133511247 27.9982748536783 0  0.000386751506968941 27.99828853128197 0  1.001354822136662 27.9982687499652 0  2.002351419708436 27.99821496586026 0  3.003403579353477 27.99812574074351 0  4.003433023637237 27.99951314650799 0  5.003389512827808 28.00090046572665 0  6.002474163752924 28.00064432467905 0  7.001617534278692 28.00041500703788 0  8.00
[...]
<PointData  Vectors="f_42"> 
<DataArray  type="Float64"  Name="f_42"  NumberOfComponents="3" format="ascii">0.0000000000000000e+00 0.0000000000000000e+00 0.0000000000000000e+00  0.0000000000000000e+00 0.0000000000000000e+00 0.0000000000000000e+00  0.0000000000000000e+00 0.0000000000000000e+00 0.0000000000000000e+00  0.0000000000000000e+00 0.0000000000000000e+00 0.0000000000000000e+00  0.0000000000000000e+00 0.0000000000000000e+00 0.0000000000000000e+00  0.0000000000000000e+00 0.0000000000000000e+00 0.0000000000000000e+00  0.0000000000000000e+00 0.0000000000000000e+00 0.0000000000000000e+00  0.0000000000000000e+00 0.0000000000000000e+00 0.0000000000000000e+00  0.0000000000000000e+00 0.0000000000000000e+00 0.0000000000000000e+00  0.0000000000000000e+00 0.0000000000000000e+00 0.0000000000000000e+00  0.0000000000000000e+00 0.0000000000000000e+00 0.0000000000000000e+00  0.0000000000000000e+00 0.0000000000000000e+00 0.0000000000000000e+00  0.0000000000000000e+00 0.0000000000000000e+00 0.0000000000000000e+00  0.0000000000000000e+00 0.0000000000000000e+00 0.0000000000000000e+00  0.0000000000000000e+00 0.0000000000000000e+00 0.0000000000000000e+00  0.0000000000000000e+00 0.0000000000000000e+00 0.0000000000000000e+00  0.0000000000000000e+00 0.0000000000000000e+00 0.0000000000000000e+00  0.0000000000000000e+00 0.0000000000000000e+00 0.0000000000000000e+00  0.0000000000000000e+00 0.0000000000000000e+00 0.0000000000000000e+00  0.0000000000000000e+00 0.0000000000000000e+00 0.0000000000000000e+00  -7.3142116678245581e-06 -1.1446804817405859e-05 0.0000000000000000e+00  -1.5355467544621879e-05 -2.1443196398759900e-05 0.0000000000000000e+00  -2.5867119033009013e-05 -2.8806533695539241e-05 0.0000000000000000e+00  -4.2861661355410996e-05 -3.3003128348746889e-05 0.0000000000000000e+00  -2.4923314054315182e-05 -2.4806047941869800e-05 0.0000000000000000e+00  -6.5079744233499511e-06 -1.6810266530914780e-05 0.0000000000000000e+00  2.3738128593995342e-06 -9.2131769229678462e-06 0.0000000000000000e+00  3.6397021169062860e-06 -3.2106196793576454e-06 0.0000000000000000e+00  1.6015047142306760e-07 -6.0640903265890161e-07 0.0000000000000000e+00  -3.6127957299929031e-06 -2.5183103302808728e-06 0.0000000000000000e+00  -3.3364786386605480e-06 -8.5168986228825601e-06 0.0000000000000000e+00  3.9202659434534940e-06 -1.5879983694890255e-05 0.0000000000000000e+00  1.9103723653856253e-05 -2.3814866339237158e-05 0.0000000000000000e+00  4.1228934015832002e-05 -2.7259266104196456e-05 0.0000000000000000e+00  2.5026861309378024e-05 -2.6052646617046911e-05 0.0000000000000000e+00  1.4955579200119451e-05 -2.0068820769715778e-05 0.0000000000000000e+00  7.1618346525345690e-06 -1.0856601318070997e-05 0.0000000000000000e+00  0.0000000000000000e+00 0.0000000000000000e+00 0.0000000000000000e+00  -4.9820587634006413e-12 0.0000000000000000e+00 0.0000000000000000e+00  -1.1720089471099893e-05 -2.8694505777445492e-05 0.0000000000000000e+00  -2.0829411102717105e-05 -5.3418050708459088e-05 0.0000000000000000e+00  -2.5802601835695664e-05 -7.0279731405627777e-05 0.0000000000000000e+00  -2.6963868778507010e-05 -7.5568336667028164e-05 0.0000000000000000e+00  -5.2984969566149107e-07 -7.1793409802582651e-05 0.0000000000000000e+00  1.7130038572538440e-05 -4.8969211660332983e-05 0.0000000000000000e+00  2.1537344226531086e-05 -1.9183701903857989e-05 0.0000000000000000e+00  1.4442447129540956e-05 4.7876045308381415e-06 0.0000000000000000e+00  1.1031999830803332e-06 1.4367484682648112e-05 0.0000000000000000e+00  -1.2478983593208465e-05 6.5567496319030205e-06 0.0000000000000000e+00  -2.0381564603431577e-05 -1.4266382656951495e-05 0.0000000000000000e+00  -1.6659614326832193e-05 -4.2458980290425649e-05 0.0000000000000000e+00  5.2226957143459610e-07 -7.0954724255049392e-05 0.0000000000000000e+00  2.6843739324773461e-05 -8.0960057117981200e-05 0.0000000000000000e+00  2.5530377523627632e-05 -7.1213563098008147e-05 0.0000000000000000e+00  2.0800776633995606e-05 -5.3050333726704287e-05 0.0000000000000000e+00  1.1795675428057310e-05 -2.8289820263643677e-05 0.0000000000000000e+00  0.0000000000000000e+00 0.0000000000000000e+00 0.0000000000000000e+00  0.0000000000000000e+00 0.0000000000000000e+00 0.0000000000000000e+00  -2.6568076281987045e-05 -6.1822249860301237e-05 0.0000000000000000e+00  -4.2847804203883234e-05 -1.1683682978984815e-04 0.0000000000000000e+00  -4.0985728535584916e-05 -1.5804179176175239e-04 0.0000000000000000e+00  -1.8720283774218567e-05 -1.7871372419947062e-04 0.0000000000000000e+00  3.3309962888518257e-05 -1.4486122979782837e-04 0.0000000000000000e+00  5.6897954183430857e-05 -7.3812135092817958e-05 0.0000000000000000e+00  4.7395112321000824e-05 7.4293446030673771e-07 0.0000000000000000e+00  2.3835759739167710e-05 4.2235561342359746e-05 0.0000000000000000e+00  -8.7338173786401803e-08 5.0466033020677217e-05 0.0000000000000000e+00  -2.1691008008408643e-05 3.6757028536744610e-05 0.0000000000000000e+00  -3.8220736572296730e-05 -1.0230283859988485e-06 0.0000000000000000e+00  -4.4452935426299253e-05 -6.4864337053719131e-05 0.0000000000000000e+00  -3.2013073034321443e-05 -1.3120744376257841e-04 0.0000000000000000e+00  1.2937497629253727e-05 -1.6447473940407910e-04 0.0000000000000000e+00  3.9698796183550050e-05 -1.5003803531465557e-04 0.0000000000000000e+00  4.3746867376516732e-05 -1.1241707914741410e-04 0.0000000000000000e+00  2.7590197345274350e-05 -5.9836551944634604e-05 0.0000000000000000e+00  0.0000000000000000e+00 0.0000000000000000e+00 0.0000000000000000e+00  0.0000000000000000e+00 0.0000000000000000e+00 0.0000000000000000e+00  -8.2558685317489448e-05 -1.2216352913740615e-04 0.0000000000000000e+00  -1.3742659774359443e-04 -2.3547499353633854e-04 0.0000000000000000e+00  -1.3777813335816104e-04 -3.2791700440160121e-04 0.0000000000000000e+00  -6.0643177087094922e-05 -3.7969169887073226e-04 0.0000000000000000e+00  4.0263309949964163e-05 -2.2263112470416007e-04 0.0000000000000000e+00  2.1889499915191386e-05 -3.7929428887766334e-05 0.0000000000000000e+00  -1.5846113312037179e-05 5.2281423841185012e-05 0.0000000000000000e+00  -1.9105909642247805e-05 6.2808641248856612e-05 0.0000000000000000e+00  3.3037612866216167e-06 6.5927413854683847e-05 0.0000000000000000e+00  1.9874193922929052e-05 7.5094800818866010e-05 0.0000000000000000e+00  1.2487127711598528e-05 3.6762459348316604e-05 0.0000000000000000e+00  -3.2172869881681941e-05 -2.8385589371707898e-05 0.0000000000000000e+00  -4.7509757768140508e-05 -1.8954298095526806e-04 0.0000000000000000e+00  5.2636868858034248e-05 -3.7142609108367137e-04 0.0000000000000000e+00  1.4470624838738215e-04 -3.2157261762423258e-04 0.0000000000000000e+00  1.4749582472934857e-04 -2.3160146354972376e-04 0.0000000000000000e+00  8.9104961725617105e-05 -1.2039174784795386e-04 0.0000000000000000e+00  0.0000000000000000e+00 0.0000000000000000e+00 0.0000000000000000e+00  0.0000000000000000e+00 0.0000000000000000e+00 0.0000000000000000e+00  -2.4922294433732595e-04 -2.1784099277412887e-04 0.0000000000000000e+00  -4.4997348043562406e-04 -4.3747933221505647e-04 0.0000000000000000e+00  -5.4442410775460564e-04 -6.6027699244906922e-04 0.0000000000000000e+00  -4.5201236611924826e-04 -8.8655691359228682e-04 0.0000000000000000e+00  -2.9207429518321416e-04 -3.7937933534266499e-04 0.0000000000000000e+00  -3.1783143143474614e-04 5.6830160644377422e-05 0.0000000000000000e+00  -2.5286375102279705e-04 -1.7607449525819112e-05 0.0000000000000000e+00  -1.1240197519625229e-04 -4.1503461694926762e-05 0.0000000000000000e+00  -8.6579567664230633e-06 -4.7357160825897509e-05 0.0000000000000000e+00  9.4499558598238294e-05 -4.6998147783715962e-05 0.0000000000000000e+00  2.3230706021727595e-04 -5.0103128272455460e-05 0.0000000000000000e+00  3.5295443216018258e-04 1.0882496362729830e-04 0.0000000000000000e+00  3.3689748252368232e-04 -3.1200367617606559e-04 0.0000000000000000e+00  5.2147362551567056e-04 -8.6738602030594328e-04 0.0000000000000000e+00  6.0663583418948497e-04 -6.5342539207855421e-04 0.0000000000000000e+00  4.9584177688509793e-04 -4.3565476925634032e-04 0.0000000000000000e+00  2.7339432160821233e-04 -2.1762096393704192e-04 0.0000000000000000e+00  0.0000000000000000e+00 0.0000000000000000e+00 0.0000000000000000e+00  0.0000000000000000e+00 0.0000000000000000e+00 0.0000000000000000e+00  -6.0936230669550386e-04 -3.0617515679507557e-04 0.0000000000000000e+00  -1.1870424056513182e-03 -6.2658658269512495e-04 0.0000000000000000e+00  -1.6972092875569445e-03 -9.7825446919221613e-04 0.0000000000000000e+00  -2.0953506337246914e-03 -1.3848977370835844e-03 0.0000000000000000e+00  -2.0135217639071171e-03 -4.6033582600004156e-04 0.0000000000000000e+00  -2.0868784007408076e-03 4.5486175682280910e-04 0.0000000000000000e+00  -1.4222177092976475e-03 3.4579408646306589e-04 0.0000000000000000e+00  -6.8428043034920441e-04 2.8765370674285344e-04 0.0000000000000000e+00  8.0929697535710531e-05 2.7799746960287654e-04 0.0000000000000000e+00  8.5268440713776809e-04 3.1889292772166439e-04 0.0000000000000000e+00  1.6131827595917399e-03 4.2174227875581223e-04 0.0000000000000000e+00  2.3270947581701465e-03 6.1492211775066475e-04 0.0000000000000000e+00  2.2460330358214553e-03 -3.9722721977111146e-04 0.0000000000000000e+00  2.3002254086137417e-03 -1.4179145518019179e-03 0.0000000000000000e+00  1.8514142318397505e-03 -1.0001648978766574e-03 0.0000000000000000e+00  1.2903123189452071e-03 -6.4054399674627616e-04 0.0000000000000000e+00  6.6117179549354550e-04 -3.1306446313573608e-04 0.0000000000000000e+00  0.0000000000000000e+00 0.0000000000000000e+00 0.0000000000000000e+00  0.0000000000000000e+00 0.0000000000000000e+00 0.0000000000000000e+00  -1.0953753938138181e-03 -3.3739027046571023e-04 0.0000000000000000e+00  -2.1927941004394416e-03 -6.9036669224232150e-04 0.0000000000000000e+00  -3.2957511448169236e-03 -1.0758900402492698e-03 0.0000000000000000e+00  -4.4114467440949136e-03 -1.5136192842482405e-03 0.0000000000000000e+00  -4.4230514884129697e-03 -4.3370608943478235e-04 0.0000000000000000e+00  -4.4291357773899032e-03 6.5975353342496794e-04 0.0000000000000000e+00  -2.8862951771879411e-03 5.0580760412757093e-04 0.0000000000000000e+00  -1.3659397251492361e-03 4.2315909214443763e-04 0.0000000000000000e+00  1.4458230060614377e-04 4.0141062225262269e-04 0.0000000000000000e+00  1.6572140389528006e-03 4.3729853187697684e-04 0.0000000000000000e+00  3.1828738330514045e-03 5.3274227985528879e-04 0.0000000000000000e+00  4.7298842076938796e-03 6.9288159371950413e-04 0.0000000000000000e+00  4.7406209193877908e-03 -4.3697024585402883e-04 0.0000000000000000e+00  4.7487755633340159e-03 -1.5600485034985988e-03 0.0000000000000000e+00  3.5432087929615948e-03 -1.1136858471945089e-03 0.0000000000000000e+00  2.3556785590057331e-03 -7.1644636605832680e-04 0.0000000000000000e+00  1.1762885248653319e-03 -3.5061643742943495e-04 0.0000000000000000e+00  0.0000000000000000e+00 0.0000000000000000e+00 0.0000000000000000e+00  0.0000000000000000e+00 0.0000000000000000e+00 0.0000000000000000e+00  -1.5720494670454631e-03 -3.0614496401036551e-04 0.0000000000000000e+00  -3.1744701398190795e-03 -6.2371342079671282e-04 0.0000000000000000e+00  -4.8402415031989603e-03 -9.6433185443017290e-04 0.0000000000000000e+00  -6.6076488189206481e-03 -1.3398535141846499e-03 0.0000000000000000e+00  -6.6710096777750517e-03 -4.2061865366904244e-04 0.0000000000000000e+00  -6.6107021431247668e-03 4.9362825565665977e-04 0.0000000000000000e+00  -4.2634745625029259e-03 3.8158153326398189e-04 0.0000000000000000e+00  -2.0095768427391956e-03 3.1583195712482772e-04 0.0000000000000000e+00  1.9989061268601164e-04 2.9497455118991639e-04 0.0000000000000000e+00  2.4111153147554445e-03 3.1816920024546120e-04 0.0000000000000000e+00  4.6702512354623634e-03 3.8565007822049396e-04 0.0000000000000000e+00  7.0263606176767029e-03 4.9849164271960377e-04 0.0000000000000000e+00  7.0929969873477989e-03 -4.6637133656379711e-04 0.0000000000000000e+00  7.0347982559203614e-03 -1.4320696792992050e-03 0.0000000000000000e+00  5.1592164442942935e-03 -1.0302283552223734e-03 0.0000000000000000e+00  3.3862737848788993e-03 -6.6637080400917630e-04 0.0000000000000000e+00  1.6776777092651091e-03 -3.2713499198362548e-04 0.0000000000000000e+00  0.0000000000000000e+00 0.0000000000000000e+00 0.0000000000000000e+00  0.0000000000000000e+00 0.0000000000000000e+00 0.0000000000000000e+00  -1.9260069834032784e-03 -2.2917511195327372e-04 0.0000000000000000e+00  -3.9005397328350784e-03 -4.6473696377514215e-04 0.0000000000000000e+00  -5.9746372632070183e-03 -7.1296149692073147e-04 0.0000000000000000e+00  -8.2043343671808159e-03 -9.7988040832650003e-04 0.0000000000000000e+00  -8.3001084708803820e-03 -4.1798373113586634e-04 0.0000000000000000e+00  -8.2072634422298667e-03 1.4306083095107921e-04 0.0000000000000000e+00  -5.2712497799487076e-03 7.2960122435320813e-05 0.0000000000000000e+00  -2.4773067596658735e-03 2.9754843381802232e-05 0.0000000000000000e+00  2.4814013137958927e-04 1.3141121347298263e-05 0.0000000000000000e+00  2.9751016288152789e-03 2.2690004707783891e-05 0.0000000000000000e+00  5.7734912529342737e-03 5.7879210787085878e-05 0.0000000000000000e+00  8.7165522260253085e-03 1.1795773701857755e-04 0.0000000000000000e+00  8.8145408413531322e-03 -4.8832347751092406e-04 0.0000000000000000e+00  8.7213184658907518e-03 -1.0929885647318954e-03 0.0000000000000000e+00  6.3604913334808855e-03 -7.9452063179402742e-04 0.0000000000000000e+00  4.1568546765224515e-03 -5.1761363124787699e-04 0.0000000000000000e+00  2.0538873334450523e-03 -2.5517798139891378e-04 0.0000000000000000e+00  0.0000000000000000e+00 0.0000000000000000e+00 0.0000000000000000e+00  0.0000000000000000e+00 0.0000000000000000e+00 0.0000000000000000e+00  -2.0847222271513019e-03 -1.2667637787019162e-04 0.0000000000000000e+00  -4.2260893041321792e-03 -2.5507761423197424e-04 0.0000000000000000e+00  -6.4829090537709541e-03 -3.8674234745798505e-04 0.0000000000000000e+00  -8.9183151040169370e-03 -5.2284499557195513e-04 0.0000000000000000e+00  -9.0276745640355989e-03 -4.1837009994617709e-04 0.0000000000000000e+00  -8.9191182758700180e-03 -3.1485242775050159e-04 0.0000000000000000e+00  -5.7151857610663690e-03 -3.4265754702851809e-04 0.0000000000000000e+00  -2.6731434599035872e-03 -3.6209246210385849e-04 0.0000000000000000e+00  2.9027771607723361e-04 -3.7273876082742055e-04 0.0000000000000000e+00  3.2553424642584000e-03 -3.7476455950394006e-04 0.0000000000000000e+00  6.3022982468657661e-03 -3.6890388650053619e-04 0.0000000000000000e+00  9.5143769400157108e-03 -3.5650877219359499e-04 0.0000000000000000e+00  9.6254693471942137e-03 -4.9920138458331171e-04 0.0000000000000000e+00  9.5160095726756263e-03 -6.4082888317361050e-04 0.0000000000000000e+00  6.9286940677590796e-03 -4.7247633555249876e-04 0.0000000000000000e+00  4.5220999688937568e-03 -3.1092523446800841e-04 0.0000000000000000e+00  2.2323754057085887e-03 -1.5420814881711482e-04 0.0000000000000000e+00  -1.9221466110336955e-11 -6.1516175690683640e-12 0.0000000000000000e+00  0.0000000000000000e+00 0.0000000000000000e+00 0.0000000000000000e+00  -2.0157994014201627e-03 -1.7297749748241194e-05 0.0000000000000000e+00  -4.0875704876496737e-03 -3.2365259652748690e-05 0.0000000000000000e+00  -6.2730507777188291e-03 -4.2760818854054018e-05 0.0000000000000000e+00  -8.6334920762926957e-03 -4.5614781436507733e-05 0.0000000000000000e+00  -8.7405839657869848e-03 -4.2312025017428507e-04 0.0000000000000000e+00  -8.6338289171539392e-03 -8.0170552482200703e-04 0.0000000000000000e+00  -5.5160864870092653e-03 -7.9155765886810929e-04 0.0000000000000000e+00  -2.5566179000284300e-03 -7.8887685348117656e-04 0.0000000000000000e+00  3.2585909650140529e-04 -7.9288236047290843e-04 0.0000000000000000e+00  3.2101760118262825e-03 -8.0356148688085502e-04 0.0000000000000000e+00  6.1751722864487593e-03 -8.2165507742147604e-04 0.0000000000000000e+00  9.3021577046113260e-03 -8.4867186010242467e-04 0.0000000000000000e+00  9.4095540663152576e-03 -5.0260289875020739e-04 0.0000000000000000e+00  9.2998422038152954e-03 -1.5599962801090568e-04 0.0000000000000000e+00  6.7698599471001436e-03 -1.2323876657167302e-04 0.0000000000000000e+00  4.4173699534723540e-03 -8.4923139380934948e-05 0.0000000000000000e+00  2.1802740302055605e-03 -4.3248553571668529e-05 0.0000000000000000e+00  0.0000000000000000e+00 0.0000000000000000e+00 0.0000000000000000e+00  0.0000000000000000e+00 0.0000000000000000e+00 0.0000000000000000e+00  -1.7218915117530981e-03 8.3164092008454517e-05 0.0000000000000000e+00  -3.4918926576160722e-03 1.7166362347994233e-04 0.0000000000000000e+00  -5.3594834528731062e-03 2.7105352560095685e-04 0.0000000000000000e+00  -7.3767888284375889e-03 3.8734341535777845e-04 0.0000000000000000e+00  -7.4690561387481275e-03 -4.3208416233488729e-04 0.0000000000000000e+00  -7.3779161192603854e-03 -1.2525176905472451e-03 0.0000000000000000e+00  -4.6883047870706802e-03 -1.2107634778997997e-03 0.0000000000000000e+00  -2.1341561302801238e-03 -1.1890790488598253e-03 0.0000000000000000e+00  3.5419919965176645e-04 -1.1864950945322291e-03 0.0000000000000000e+00  2.8445720788701813e-03 -1.2028752956669050e-03 0.0000000000000000e+00  5.4047929870545339e-03 -1.2389120672460592e-03 0.0000000000000000e+00  8.1045924426373563e-03 -1.2961323836282351e-03 0.0000000000000000e+00  8.1948238271308121e-03 -5.0053270011119638e-04 0.0000000000000000e+00  8.0980555212072317e-03 2.9529240697247433e-04 0.0000000000000000e+00  5.8970819808362241e-03 2.0374859543643880e-04 0.0000000000000000e+00  3.8486958758705949e-03 1.2761848238762585e-04 0.0000000000000000e+00  1.8998084492897296e-03 6.1389292829197635e-05 0.0000000000000000e+00  0.0000000000000000e+00 0.0000000000000000e+00 0.0000000000000000e+00  0.0000000000000000e+00 0.0000000000000000e+00 0.0000000000000000e+00  -1.2342832437006947e-03 1.6231023630782705e-04 0.0000000000000000e+00  -2.5033721148464893e-03 3.3215040506933313e-04 0.0000000000000000e+00  -3.8430468296846835e-03 5.1727480515928665e-04 0.0000000000000000e+00  -5.2908334573772533e-03 7.2590377405824173e-04 0.0000000000000000e+00  -5.3586682852247557e-03 -4.4474580518389983e-04 0.0000000000000000e+00  -5.2935737444133992e-03 -1.6162126017531802e-03 0.0000000000000000e+00  -3.3229378705690294e-03 -1.5500935762208026e-03 0.0000000000000000e+00  -1.4504524110759780e-03 -1.5132787634916129e-03 0.0000000000000000e+00  3.7465540714843264e-04 -1.5046544247204986e-03 0.0000000000000000e+00  2.2018998504273065e-03 -1.5239754869127487e-03 0.0000000000000000e+00  4.0808178363647375e-03 -1.5718643765464358e-03 0.0000000000000000e+00  6.0622496201602214e-03 -1.6498137064465926e-03 0.0000000000000000e+00  6.1252986105212823e-03 -4.9485244365614432e-04 0.0000000000000000e+00  6.0515869105142520e-03 6.6010980151564615e-04 0.0000000000000000e+00  4.4100203665363678e-03 4.6907330887758293e-04 0.0000000000000000e+00  2.8796440122220218e-03 3.0056017621870918e-04 0.0000000000000000e+00  1.4218995906621738e-03 1.4667800103688750e-04 0.0000000000000000e+00  0.0000000000000000e+00 0.0000000000000000e+00 0.0000000000000000e+00  0.0000000000000000e+00 0.0000000000000000e+00 0.0000000000000000e+00  -6.0597896354712757e-04 2.1136560814010658e-04 0.0000000000000000e+00  -1.2298295072935748e-03 4.3152132058186827e-04 0.0000000000000000e+00  -1.8899795680650223e-03 6.6948628617383209e-04 0.0000000000000000e+00  -2.6056897334327212e-03 9.3474534200251567e-04 0.0000000000000000e+00  -2.6424921974048310e-03 -4.5996549348316802e-04 0.0000000000000000e+00  -2.6102867652518973e-03 -1.8551671415287399e-03 0.0000000000000000e+00  -1.5691545766436813e-03 -1.7726317044472256e-03 0.0000000000000000e+00  -5.7913351124766466e-04 -1.7251463217052101e-03 0.0000000000000000e+00  3.8675150696894101e-04 -1.7114687180574534e-03 0.0000000000000000e+00  1.3548221366628055e-03 -1.7312500347993769e-03 0.0000000000000000e+00  2.3514197084373682e-03 -1.7850341397392198e-03 0.0000000000000000e+00  3.4035793534807866e-03 -1.8742592564924298e-03 0.0000000000000000e+00  3.4330236372344365e-03 -4.8685349200923856e-04 0.0000000000000000e+00  3.3