<?xml version="1.0"?>
<VTKFile type="UnstructuredGrid"  version="0.1"  >
<UnstructuredGrid>
<Piece  NumberOfPoints="589" NumberOfCells="1080">
<Points>
<DataArray  type="Float64"  NumberOfComponents="3"  format="ascii">-9 0 0  -8 0 0  -7 0 0  -6 0 0  -5 0 0  -4 0 0  -3 0 0  -2 0 0  -1 0 0  0 0 0  1 0 0  2 0 0  3 0 0  4 0 0  5 0 0  6 0 0  7 0 0  8 0 0  9 0 0  -9 2 0  -8.000008287858076 1.999987539349012 0  -7.000017400240155 1.999976607826891 0  -6.00002926277542 1.999968446226332 0  -5.000048266107245 1.999963595893219 0  -4.000028663894467 1.99997280455424 0  -3.000008463919546 1.999981506272785 0  -1.999998565990633 1.999989657523734 0  -0.9999968208971109 1.999996095705467 0  -1.621711748828446e-07 1.999998910232271 0  0.9999961454570654 1.999996933962704 0  1.999996704713011 1.999990633301129 0  3.000004618044129 1.999982895011349 0  4.000020868961412 1.999974579812627 0  5.000044404913131 1.999971082624954 0  6.000026855140422 1.999972379127533 0  7.000015989484579 1.999978730549423 0  8.000007637694356 1.999988496124738 0  9 2 0  -9 4 0  -8.000013277415205 3.999968963067896 0  -7.000023799910138 3.999942136627025 0  -6.000029962255618 3.999923647740867 0  -5.00003211003056 3.999917437817257 0  -4.000003580980407 3.999921664712425 0  -2.99998437645169 3.999946109901241 0  -1.999979235370961 3.999977953676607 0  -0.9999862994380881 4.000003561618518 0  -1.018185318640248e-08 4.000013863033931 0  0.9999859935846486 4.000005735231069 0  1.999977973313452 3.999983841160258 0  2.999982197786147 3.999954192396882 0  4.000000572139993 3.9999243324598 0  5.000028493538178 3.999914175361031 0  6.000026973580217 3.999924539182516 0  7.000021923246706 3.999943805462186 0  8.000012418612977 3.999970040061091 0  9 4 0  -9 6 0  -8.000029285560391 5.999933549158494 0  -7.00004764010724 5.999874319217748 0  -6.000046720038617 5.999829737262839 0  -5.000024125533612 5.999806934535132 0  -3.999968508814206 5.999843110184933 0  -2.999943117371749 5.999918802053542 0  -1.99995287256728 5.999998165973127 0  -0.9999775159473977 6.000042314391327 0  -2.484524476452451e-06 6.000051165711487 0  0.9999750712551876 6.000036778404819 0  1.999958021103387 5.999997032337413 0  2.999951775127971 5.999929891755835 0  3.999965145805056 5.99986023008417 0  5.000012801389794 5.999825623559131 0  6.000041213492013 5.999841093149793 0  7.000045673021154 5.999881011419214 0  8.000028853689722 5.999936686755734 0  9 6 0  -9 8 0  -8.000089005155761 7.999869271621042 0  -7.000148571190076 7.999747931367979 0  -6.000150171149331 7.999648731127884 0  -5.000069354542193 7.999592698677662 0  -3.999961963290139 7.999759910948858 0  -2.999981426821823 7.999956406375509 0  -2.000021405644981 8.0000522521251 0  -1.000024615353882 8.000063309911427 0  -4.831195580340499e-07 8.000066551668695 0  1.000017575007233 8.000076196208902 0  2.000010256768322 8.000035965333579 0  2.999963610761941 7.999967448519069 0  3.999947981076412 7.99979793439796 0  5.000053914545513 7.999606650289595 0  6.00015124835716 7.999659882188682 0  7.000154520525188 7.99975521194008 0  8.000093410954761 7.999872799116162 0  9 8 0  -9 10 0  -8.000266380681968 9.999767522662445 0  -7.000481258696192 9.999533105434059 0  -6.000583185350172 9.999295260917432 0  -5.000486524398064 9.999053585046992 0  -4.000316539611304 9.999592972645885 0  -3.000343789671242 10.000056784275 0  -2.00027429541778 9.999977295610917 0  -1.000124629824562 9.999951779064604 0  -1.419040955241656e-05 9.999945542767286 0  1.000095451622973 9.999945978585279 0  2.000241448456166 9.999942899602315 0  3.000370036584455 10.00011022187421 0  4.000354041057458 9.999667769350076 0  5.000548124000352 9.999083963650349 0  6.00063731244347 9.999310447780786 0  7.000520757685782 9.99954047673263 0  8.000287083782519 9.999770516281846 0  9 10 0  -9 12 0  -8.000649301672876 11.99967370605819 0  -7.001264992021714 11.99933228007973 0  -6.001809081143543 11.99895762429016 0  -5.002234405044383 11.99852450689084 0  -4.00214786622759 11.99950700852989 0  -3.002226047517581 12.00047961411046 0  -2.001523606078744 12.00036240901354 0  -1.000743566334831 12.00029930791357 0  6.561678803239025e-05 12.00028759976323 0  1.000882397039438 12.00032935933982 0  2.001688524659581 12.00043655008666 0  3.00244759156546 12.00063907433111 0  4.002363280357169 11.99957743900263 0  5.002419230910316 11.9985069401045 0  6.001945278640892 11.99894722115899 0  7.001354935159174 11.99932593697355 0  8.000694067641751 11.99967060423315 0  9 12 0  -9 14 0  -8.001165709105923 13.99964061263499 0  -7.002333595204588 13.99926471156028 0  -6.003507411713565 13.9988543271864 0  -5.004694904438001 13.99838863387491 0  -4.004707632526777 13.99953550554789 0  -3.004714316410574 14.00069687472732 0  -2.003085121723045 14.00053146753256 0  -1.001479862222207 14.00044158406313 0  0.0001152797459485485 14.00041608058706 0  1.001713387964376 14.00045137934285 0  2.003326553191867 14.00054939148008 0  3.00496427380068 14.00071543139678 0  4.004976695590583 13.99953525080921 0  5.004984030801196 13.99836232839681 0  6.003716457080492 13.99883102589247 0  7.002469830223053 13.99924805234009 0  8.001232991793326 13.99963203074721 0  9 14 0  -9 16 0  -8.001672102111064 15.99967370353812 0  -7.003376324279635 15.99933535066804 0  -6.005147571747591 15.99897267880843 0  -5.007026404278665 15.99857320325583 0  -4.007093774874236 15.99954948659694 0  -3.007030192500932 16.00052054217114 0  -2.004554292271505 16.00039948727432 0  -1.002177166209405 16.00032719184741 0  0.0001531541784671332 16.00030212279321 0  1.002485761502139 16.00032330759207 0  2.004869740816928 16.00039088101988 0  3.007357307828444 16.00050583520466 0  4.007428272810332 15.99950414944738 0  5.007366064252098 15.99850168126763 0  6.00539987070483 15.99892204030743 0  7.003543159386525 15.99930272775092 0  8.001755088623066 15.99965768779015 0  9 16 0  -9 18 0  -8.002048636820833 17.99975505364345 0  -7.004148486440445 17.99950340167083 0  -6.006353424304498 17.99923846492042 0  -5.008722610642689 17.99895393957361 0  -4.008823998807211 17.99955238365363 0  -3.008726226661691 18.00015001895306 0  -2.00563271622295 18.00007333680671 0  -1.00268927528981 18.00002479459258 0  0.0001818214374504252 18.00000404058379 0  1.003054526814863 18.00001055329512 0  2.006002687998077 18.00004368260609 0  3.009103670340274 18.0001025030059 0  4.009207068202733 17.99948105222554 0  5.009108523336439 17.99886139181388 0  6.006640812046188 17.99917207843329 0  7.004339070316462 17.99946052047388 0  8.002143623002253 17.99973401215857 0  9 18 0  -9 20 0  -8.002219046851245 19.99986320463776 0  -7.004497772840956 19.9997246249443 0  -6.006898130786665 19.99958268019843 0  -5.009486617379593 19.99943618678711 0  -4.009602111923718 19.99955216179631 0  -3.009487970285222 19.99966721560235 0  -2.006115773240384 19.99963526370549 0  -1.002914334136 19.99961190351921 0  0.000203973813747983 19.99959754910719 0  1.003323609759789 19.99959196897807 0  2.006529001350922 19.99959430901792 0  3.009907694735419 19.99960303702339 0  4.010024259744521 19.99946967972073 0  5.009909218231813 19.99933751261695 0  6.007213203068251 19.99951118967858 0  7.004706922297744 19.99967816048193 0  8.002323351629599 19.99984033086082 0  9.000000000002707 19.9999999999934 0  -9 22 0  -8.002149562108952 21.99997846884906 0  -7.004358021690769 21.99995930334442 0  -6.006686119613432 21.99994509584901 0  -5.009198263226022 21.99993889677283 0  -4.009311231643136 21.99954739618639 0  -3.009199165511701 21.99915483967704 0  -2.005920779715144 21.99916303405435 0  -1.002809211277697 21.99916322047201 0  0.0002208198344000344 21.9991561922755 0  1.003252021065951 21.99914191829385 0  2.00636709012171 21.99911955859697 0  3.009651281103711 21.99908744952554 0  4.009763413585607 21.99946613657674 0  5.009648588695785 21.99984544165715 0  6.007022168027411 21.99987710867198 0  7.004581236556606 21.99991497504839 0  8.002260918985041 21.99995660372772 0  9 22 0  -9 24 0  -8.00184327359303 24.00008427204842 0  -7.003737148598447 24.00017414962141 0  -6.005733652296417 24.00027546969005 0  -5.007887551151455 24.00039454907427 0  -4.007984914016701 23.99953823228797 0  -3.007889373149078 23.99868093294248 0  -2.005063356548277 23.99872264060701 0  -1.002380169289655 23.99874321192604 0  0.0002331077540158099 23.99874363329784 0  1.002847448891772 23.99872401176154 0  2.005533828783125 23.99868357897779 0  3.008365169801882 23.99862068553172 0  4.008458875915095 23.99946824558834 0  5.008357963265038 24.00031609458374 0  6.006084879249335 24.000218196246 0  7.003970537167183 24.00013671389819 0  8.001959730327421 24.0000657786634 0  9 24 0  -9 26 0  -8.001333191784033 26.00016767883801 0  -7.002703033537377 26.00034324172713 0  -6.004147186210109 26.00053480641774 0  -5.005705111586672 26.00075097649236 0  -4.005776911457546 25.99952519672232 0  -3.005708739203748 25.99829863027158 0  -2.003639281805509 25.99836635238418 0  -1.00167360053268 25.99840336445408 0  0.0002413405902128045 25.99841080213833 0  1.002157258883045 25.99838889481257 0  2.004125874730996 25.9983369664908 0  3.006200230920509 25.99825343369554 0  4.006265195469889 25.99947402828013 0  5.006188618057571 26.00069468010274 0  6.004508363357601 26.00049361399144 0  7.002943115944078 26.00031627036921 0  8.0014530134188 26.00015433995892 0  9 26 0  -9 28 0  -8.000674898855216 28.00021957872002 0  -7.001368738594031 28.00044834518266 0  -6.002101039762421 28.00069572378288 0  -5.002892178663269 28.00097162039008 0  -4.002931590997999 27.99950947686008 0  -3.002897859662112 27.99804688970751 0  -2.001804675352766 27.99813244198862 0  -1.000766140530593 27.99818134599535 0  0.000245866781095491 27.9981948739206 0  1.001258777062892 27.99817337334483 0  2.002300019391897 27.99811626747708 0  3.003397712747136 27.99802205399466 0  4.003427395316158 27.99948215065571 0  5.003382474835905 28.0009422227431 0  6.002467439456317 28.00067416792973 0  7.001612367020517 28.0004342083266 0  8.0007965157
[...]
<PointData  Vectors="f_42"> 
<DataArray  type="Float64"  Name="f_42"  NumberOfComponents="3" format="ascii">0.0000000000000000e+00 0.0000000000000000e+00 0.0000000000000000e+00  0.0000000000000000e+00 0.0000000000000000e+00 0.0000000000000000e+00  0.0000000000000000e+00 0.0000000000000000e+00 0.0000000000000000e+00  0.0000000000000000e+00 0.0000000000000000e+00 0.0000000000000000e+00  0.0000000000000000e+00 0.0000000000000000e+00 0.0000000000000000e+00  0.0000000000000000e+00 0.0000000000000000e+00 0.0000000000000000e+00  0.0000000000000000e+00 0.0000000000000000e+00 0.0000000000000000e+00  0.0000000000000000e+00 0.0000000000000000e+00 0.0000000000000000e+00  0.0000000000000000e+00 0.0000000000000000e+00 0.0000000000000000e+00  0.0000000000000000e+00 0.0000000000000000e+00 0.0000000000000000e+00  0.0000000000000000e+00 0.0000000000000000e+00 0.0000000000000000e+00  0.0000000000000000e+00 0.0000000000000000e+00 0.0000000000000000e+00  0.0000000000000000e+00 0.0000000000000000e+00 0.0000000000000000e+00  0.0000000000000000e+00 0.0000000000000000e+00 0.0000000000000000e+00  0.0000000000000000e+00 0.0000000000000000e+00 0.0000000000000000e+00  0.0000000000000000e+00 0.0000000000000000e+00 0.0000000000000000e+00  0.0000000000000000e+00 0.0000000000000000e+00 0.0000000000000000e+00  0.0000000000000000e+00 0.0000000000000000e+00 0.0000000000000000e+00  0.0000000000000000e+00 0.0000000000000000e+00 0.0000000000000000e+00  0.0000000000000000e+00 0.0000000000000000e+00 0.0000000000000000e+00  -8.2878580849991828e-06 -1.2460650987037189e-05 0.0000000000000000e+00  -1.7400240149846887e-05 -2.3392173109693832e-05 0.0000000000000000e+00  -2.9262775420643404e-05 -3.1553773668053749e-05 0.0000000000000000e+00  -4.8266107251570013e-05 -3.6404106781940955e-05 0.0000000000000000e+00  -2.8663894465447622e-05 -2.7195445759140147e-05 0.0000000000000000e+00  -8.4639195501668345e-06 -1.8493727213357787e-05 0.0000000000000000e+00  1.4340093682460345e-06 -1.0342476266519421e-05 0.0000000000000000e+00  3.1791028884129363e-06 -3.9042945332759807e-06 0.0000000000000000e+00  -1.6217117488284457e-07 -1.0897677294675540e-06 0.0000000000000000e+00  -3.8545429336352695e-06 -3.0660372955635855e-06 0.0000000000000000e+00  -3.2952869901251356e-06 -9.3666988698393966e-06 0.0000000000000000e+00  4.6180441311579867e-06 -1.7104988653168485e-05 0.0000000000000000e+00  2.0868961413409429e-05 -2.5420187373036700e-05 0.0000000000000000e+00  4.4404913131554342e-05 -2.8917375045232376e-05 0.0000000000000000e+00  2.6855140417179243e-05 -2.7620872467736671e-05 0.0000000000000000e+00  1.5989484578271334e-05 -2.1269450577690568e-05 0.0000000000000000e+00  7.6376943499780032e-06 -1.1503875263288547e-05 0.0000000000000000e+00  0.0000000000000000e+00 0.0000000000000000e+00 0.0000000000000000e+00  0.0000000000000000e+00 0.0000000000000000e+00 0.0000000000000000e+00  -1.3277415200410051e-05 -3.1036932105679254e-05 0.0000000000000000e+00  -2.3799910129824109e-05 -5.7863372975618826e-05 0.0000000000000000e+00  -2.9962255619288122e-05 -7.6352259135378849e-05 0.0000000000000000e+00  -3.2110030564274604e-05 -8.2562182740531745e-05 0.0000000000000000e+00  -3.5809804092212506e-06 -7.8335287575185671e-05 0.0000000000000000e+00  1.5623548308426504e-05 -5.3890098757229507e-05 0.0000000000000000e+00  2.0764629038282644e-05 -2.2046323394022650e-05 0.0000000000000000e+00  1.3700561911796728e-05 3.5616185193379592e-06 0.0000000000000000e+00  -1.0181853186402478e-08 1.3863033933447143e-05 0.0000000000000000e+00  -1.4006415351674376e-05 5.7352310737733912e-06 0.0000000000000000e+00  -2.2026686547865114e-05 -1.6158839742579387e-05 0.0000000000000000e+00  -1.7802213848216604e-05 -4.5807603118181438e-05 0.0000000000000000e+00  5.7213998917399253e-07 -7.5667540200536869e-05 0.0000000000000000e+00  2.8493538170247905e-05 -8.5824638968288257e-05 0.0000000000000000e+00  2.6973580212787650e-05 -7.5460817483194079e-05 0.0000000000000000e+00  2.1923246706993793e-05 -5.6194537813459760e-05 0.0000000000000000e+00  1.2418612991290181e-05 -2.9959938911387754e-05 0.0000000000000000e+00  0.0000000000000000e+00 0.0000000000000000e+00 0.0000000000000000e+00  0.0000000000000000e+00 0.0000000000000000e+00 0.0000000000000000e+00  -2.9285560396894584e-05 -6.6450841512009546e-05 0.0000000000000000e+00  -4.7640107236985782e-05 -1.2568078225123620e-04 0.0000000000000000e+00  -4.6720038624388667e-05 -1.7026273715943442e-04 0.0000000000000000e+00  -2.4125533609285322e-05 -1.9306546486423768e-04 0.0000000000000000e+00  3.1491185795864249e-05 -1.5688981506223961e-04 0.0000000000000000e+00  5.6882628251841347e-05 -8.1197946454580617e-05 0.0000000000000000e+00  4.7127432720111050e-05 -1.8340268752894802e-06 0.0000000000000000e+00  2.2484052602777596e-05 4.2314391326746623e-05 0.0000000000000000e+00  -2.4845244764524506e-06 5.1165711485275110e-05 0.0000000000000000e+00  -2.4928744812961732e-05 3.6778404822100937e-05 0.0000000000000000e+00  -4.1978896612160497e-05 -2.9676625903786576e-06 0.0000000000000000e+00  -4.8224872029712381e-05 -7.0108244159135862e-05 0.0000000000000000e+00  -3.4854194945128720e-05 -1.3976991582899774e-04 0.0000000000000000e+00  1.2801389795891045e-05 -1.7437644087109659e-04 0.0000000000000000e+00  4.1213492005955318e-05 -1.5890685020586329e-04 0.0000000000000000e+00  4.5673021151287998e-05 -1.1898858078586167e-04 0.0000000000000000e+00  2.8853689719061276e-05 -6.3313244267051175e-05 0.0000000000000000e+00  0.0000000000000000e+00 0.0000000000000000e+00 0.0000000000000000e+00  0.0000000000000000e+00 0.0000000000000000e+00 0.0000000000000000e+00  -8.9005155770115074e-05 -1.3072837895733861e-04 0.0000000000000000e+00  -1.4857119007719542e-04 -2.5206863201990222e-04 0.0000000000000000e+00  -1.5017114933223388e-04 -3.5126887212095977e-04 0.0000000000000000e+00  -6.9354542195039815e-05 -4.0730132232899281e-04 0.0000000000000000e+00  3.8036709861212752e-05 -2.4008905113859011e-04 0.0000000000000000e+00  1.8573178175157550e-05 -4.3593624492182705e-05 0.0000000000000000e+00  -2.1405644981654009e-05 5.2252125106725768e-05 0.0000000000000000e+00  -2.4615353882102106e-05 6.3309911432176855e-05 0.0000000000000000e+00  -4.8311955803404986e-07 6.6551668690980023e-05 0.0000000000000000e+00  1.7575007234152483e-05 7.6196208893824493e-05 0.0000000000000000e+00  1.0256768320964967e-05 3.5965333571492333e-05 0.0000000000000000e+00  -3.6389238059784877e-05 -3.2551480926812433e-05 0.0000000000000000e+00  -5.2018923589083030e-05 -2.0206560203826424e-04 0.0000000000000000e+00  5.3914545508852451e-05 -3.9334971041048497e-04 0.0000000000000000e+00  1.5124835716319104e-04 -3.4011781131840267e-04 0.0000000000000000e+00  1.5452052518794113e-04 -2.4478805992834176e-04 0.0000000000000000e+00  9.3410954752347591e-05 -1.2720088383899451e-04 0.0000000000000000e+00  0.0000000000000000e+00 0.0000000000000000e+00 0.0000000000000000e+00  0.0000000000000000e+00 0.0000000000000000e+00 0.0000000000000000e+00  -2.6638068197261107e-04 -2.3247733755371819e-04 0.0000000000000000e+00  -4.8125869619033626e-04 -4.6689456593868673e-04 0.0000000000000000e+00  -5.8318535017179115e-04 -7.0473908256343809e-04 0.0000000000000000e+00  -4.8652439806587459e-04 -9.4641495301221203e-04 0.0000000000000000e+00  -3.1653961129935295e-04 -4.0702735411099787e-04 0.0000000000000000e+00  -3.4378967124387390e-04 5.6784274997688104e-05 0.0000000000000000e+00  -2.7429541778225516e-04 -2.2704389083339584e-05 0.0000000000000000e+00  -1.2462982456235526e-04 -4.8220935395738326e-05 0.0000000000000000e+00  -1.4190409552416559e-05 -5.4457232730132580e-05 0.0000000000000000e+00  9.5451622974762818e-05 -5.4021414721317451e-05 0.0000000000000000e+00  2.4144845616757660e-04 -5.7100397693828450e-05 0.0000000000000000e+00  3.7003658445561782e-04 1.1022187421229796e-04 0.0000000000000000e+00  3.5404105746404132e-04 -3.3223064992655348e-04 0.0000000000000000e+00  5.4812400035818645e-04 -9.1603634965333597e-04 0.0000000000000000e+00  6.3731244347532050e-04 -6.8955221921626793e-04 0.0000000000000000e+00  5.2075768577822734e-04 -4.5952326736948212e-04 0.0000000000000000e+00  2.8708378251287962e-04 -2.2948371815675767e-04 0.0000000000000000e+00  0.0000000000000000e+00 0.0000000000000000e+00 0.0000000000000000e+00  0.0000000000000000e+00 0.0000000000000000e+00 0.0000000000000000e+00  -6.4930167287467104e-04 -3.2629394180841930e-04 0.0000000000000000e+00  -1.2649920217131028e-03 -6.6771992026719784e-04 0.0000000000000000e+00  -1.8090811435419205e-03 -1.0423757098271624e-03 0.0000000000000000e+00  -2.2344050443814261e-03 -1.4754931091509418e-03 0.0000000000000000e+00  -2.1478662275909474e-03 -4.9299147010612462e-04 0.0000000000000000e+00  -2.2260475175820546e-03 4.7961411046534901e-04 0.0000000000000000e+00  -1.5236060787442547e-03 3.6240901353714185e-04 0.0000000000000000e+00  -7.4356633483016205e-04 2.9930791357136901e-04 0.0000000000000000e+00  6.5616788032390254e-05 2.8759976324051282e-04 0.0000000000000000e+00  8.8239703943776104e-04 3.2935933981790243e-04 0.0000000000000000e+00  1.6885246595786997e-03 4.3655008665781256e-04 0.0000000000000000e+00  2.4475915654591542e-03 6.3907433109782646e-04 0.0000000000000000e+00  2.3632803571725044e-03 -4.2256099736487373e-04 0.0000000000000000e+00  2.4192309103072381e-03 -1.4930598954934048e-03 0.0000000000000000e+00  1.9452786408913777e-03 -1.0527788410060596e-03 0.0000000000000000e+00  1.3549351591798894e-03 -6.7406302645731553e-04 0.0000000000000000e+00  6.9406764174823640e-04 -3.2939576685668109e-04 0.0000000000000000e+00  0.0000000000000000e+00 0.0000000000000000e+00 0.0000000000000000e+00  0.0000000000000000e+00 0.0000000000000000e+00 0.0000000000000000e+00  -1.1657091059286214e-03 -3.5938736501415949e-04 0.0000000000000000e+00  -2.3335952045882439e-03 -7.3528843971876028e-04 0.0000000000000000e+00  -3.5074117135704070e-03 -1.1456728136014459e-03 0.0000000000000000e+00  -4.6949044380039349e-03 -1.6113661250874481e-03 0.0000000000000000e+00  -4.7076325267786752e-03 -4.6449445210288034e-04 0.0000000000000000e+00  -4.7143164105725045e-03 6.9687472731864975e-04 0.0000000000000000e+00  -3.0851217230442791e-03 5.3146753255673242e-04 0.0000000000000000e+00  -1.4798622222053652e-03 4.4158406312007093e-04 0.0000000000000000e+00  1.1527974594854850e-04 4.1608058705624551e-04 0.0000000000000000e+00  1.7133879643751850e-03 4.5137934285386375e-04 0.0000000000000000e+00  3.3265531918691554e-03 5.4939148007922788e-04 0.0000000000000000e+00  4.9642738006811299e-03 7.1543139677425905e-04 0.0000000000000000e+00  4.9766955905771425e-03 -4.6474919079410554e-04 0.0000000000000000e+00  4.9840308011992020e-03 -1.6376716031938872e-03 0.0000000000000000e+00  3.7164570804864520e-03 -1.1689741075236451e-03 0.0000000000000000e+00  2.4698302230531165e-03 -7.5194765992305315e-04 0.0000000000000000e+00  1.2329917933246498e-03 -3.6796925279826979e-04 0.0000000000000000e+00  0.0000000000000000e+00 0.0000000000000000e+00 0.0000000000000000e+00  0.0000000000000000e+00 0.0000000000000000e+00 0.0000000000000000e+00  -1.6721021110585588e-03 -3.2629646188860539e-04 0.0000000000000000e+00  -3.3763242796350751e-03 -6.6464933195380246e-04 0.0000000000000000e+00  -5.1475717475883863e-03 -1.0273211915593048e-03 0.0000000000000000e+00  -7.0264042786650814e-03 -1.4267967441748697e-03 0.0000000000000000e+00  -7.0937748742329661e-03 -4.5051340305437979e-04 0.0000000000000000e+00  -7.0301925009316167e-03 5.2054217114471345e-04 0.0000000000000000e+00  -4.5542922715045399e-03 3.9948727433769158e-04 0.0000000000000000e+00  -2.1771662094048510e-03 3.2719184740176004e-04 0.0000000000000000e+00  1.5315417846713323e-04 3.0212279321062689e-04 0.0000000000000000e+00  2.4857615021393882e-03 3.2330759206646226e-04 0.0000000000000000e+00  4.8697408169264050e-03 3.9088101987522076e-04 0.0000000000000000e+00  7.3573078284467795e-03 5.0583520465322487e-04 0.0000000000000000e+00  7.4282728103299261e-03 -4.9585055260400112e-04 0.0000000000000000e+00  7.3660642521037704e-03 -1.4983187323776720e-03 0.0000000000000000e+00  5.3998707048330567e-03 -1.0779596925730142e-03 0.0000000000000000e+00  3.5431593865245786e-03 -6.9727224907639035e-04 0.0000000000000000e+00  1.7550886230716816e-03 -3.4231220985079695e-04 0.0000000000000000e+00  0.0000000000000000e+00 0.0000000000000000e+00 0.0000000000000000e+00  0.0000000000000000e+00 0.0000000000000000e+00 0.0000000000000000e+00  -2.0486368208154711e-03 -2.4494635652246884e-04 0.0000000000000000e+00  -4.1484864404431098e-03 -4.9659832915559493e-04 0.0000000000000000e+00  -6.3534243044983518e-03 -7.6153507959446311e-04 0.0000000000000000e+00  -8.7226106426909877e-03 -1.0460604263839730e-03 0.0000000000000000e+00  -8.8239988072082373e-03 -4.4761634636756567e-04 0.0000000000000000e+00  -8.7262266616915159e-03 1.5001895307413955e-04 0.0000000000000000e+00  -5.6327162229494769e-03 7.3336806704358740e-05 0.0000000000000000e+00  -2.6892752898126089e-03 2.4794592582241337e-05 0.0000000000000000e+00  1.8182143745042517e-04 4.0405837757235305e-06 0.0000000000000000e+00  3.0545268148629932e-03 1.0553295113259222e-05 0.0000000000000000e+00  6.0026879980734967e-03 4.3682606088743165e-05 0.0000000000000000e+00  9.1036703402740584e-03 1.0250300588354626e-04 0.0000000000000000e+00  9.2070682027324997e-03 -5.1894777446904268e-04 0.0000000000000000e+00  9.1085233364427681e-03 -1.1386081861351840e-03 0.0000000000000000e+00  6.6408120461874101e-03 -8.2792156673250654e-04 0.0000000000000000e+00  4.3390703164668540e-03 -5.3947952611694031e-04 0.0000000000000000e+00  2.1436230022494262e-03 -2.6598784142825625e-04 0.0000000000000000e+00  0.0000000000000000e+00 0.0000000000000000e+00 0.0000000000000000e+00  0.0000000000000000e+00 0.0000000000000000e+00 0.0000000000000000e+00  -2.2190468512392663e-03 -1.3679536224932152e-04 0.0000000000000000e+00  -4.4977728409553545e-03 -2.7537505569692289e-04 0.0000000000000000e+00  -6.8981307866686666e-03 -4.1731980153640429e-04 0.0000000000000000e+00  -9.4866173795913090e-03 -5.6381321288651151e-04 0.0000000000000000e+00  -9.6021119237156300e-03 -4.4783820368771881e-04 0.0000000000000000e+00  -9.4879702852236885e-03 -3.3278439765280145e-04 0.0000000000000000e+00  -6.1157732403825781e-03 -3.6473629450008475e-04 0.0000000000000000e+00  -2.9143341360008531e-03 -3.8809648078392742e-04 0.0000000000000000e+00  2.0397381374798296e-04 -4.0245089279504590e-04 0.0000000000000000e+00  3.3236097597900112e-03 -4.0803102193308447e-04 0.0000000000000000e+00  6.5290013509268115e-03 -4.0569098208992116e-04 0.0000000000000000e+00  9.9076947354202107e-03 -3.9696297662819124e-04 0.0000000000000000e+00  1.0024259744521844e-02 -5.3032027927775774e-04 0.0000000000000000e+00  9.9092182318121034e-03 -6.6248738304351532e-04 0.0000000000000000e+00  7.2132030682498186e-03 -4.8881032142956342e-04 0.0000000000000000e+00  4.7069222977406816e-03 -3.2183951805768245e-04 0.0000000000000000e+00  2.3233516295784488e-03 -1.5966913919155060e-04 0.0000000000000000e+00  2.7035157433720047e-12 -6.5946186798380934e-12 0.0000000000000000e+00  0.0000000000000000e+00 0.0000000000000000e+00 0.0000000000000000e+00  -2.1495621089508161e-03 -2.1531150951285354e-05 0.0000000000000000e+00  -4.3580216907721800e-03 -4.0696655599379375e-05 0.0000000000000000e+00  -6.6861196134312406e-03 -5.4904150976020715e-05 0.0000000000000000e+00  -9.1982632260213405e-03 -6.1103227162300120e-05 0.0000000000000000e+00  -9.3112316431376799e-03 -4.5260381358725935e-04 0.0000000000000000e+00  -9.1991655117033989e-03 -8.4516032294776799e-04 0.0000000000000000e+00  -5.9207797151420265e-03 -8.3696594563031218e-04 0.0000000000000000e+00  -2.8092112776974768e-03 -8.3677952798916699e-04 0.0000000000000000e+00  2.2081983440003442e-04 -8.4380772452060738e-04 0.0000000000000000e+00  3.2520210659511594e-03 -8.5808170616563932e-04 0.0000000000000000e+00  6.3670901217082283e-03 -8.8044140305003110e-04 0.0000000000000000e+00  9.6512811037100712e-03 -9.1255047446400079e-04 0.0000000000000000e+00  9.7634135856104962e-03 -5.3386342323922728e-04 0.0000000000000000e+00  9.6485886957856475e-03 -1.5455834286162264e-04 0.0000000000000000e+00  7.0221680274097148e-03 -1.2289132801047143e-04 0.0000000000000000e+00  4.5812365566028860e-03 -8.5024951593643975e-05 0.0000000000000000e+00  2.2609189850342996e-03 -4.3396272276319549e-05 0.0000000000000000e+00  0.0000000000000000e+00 0.0000000000000000e+00 0.0000000000000000e+00  0.0000000000000000e+00 0.0000000000000000e+00 0.0000000000000000e+00  -1.8432735930208484e-03 8.4272048417179116e-05 0.0000000000000000e+00  -3.7371485984494792e-03 1.7414962142282828e-04 0.0000000000000000e+00  -5.7336522964241445e-03 2.7546969005396864e-04 0.0000000000000000e+00  -7.8875511514465355e-03 3.9454907425922795e-04 0.0000000000000000e+00  -7.9849140167007702e-03 -4.6176771201470097e-04 0.0000000000000000e+00  -7.8893731490770700e-03 -1.3190670575205180e-03 0.0000000000000000e+00  -5.0633565482740795e-03 -1.2773593929854485e-03 0.0000000000000000e+00  -2.3801692896548692e-03 -1.2567880739603938e-03 0.0000000000000000e+00  2.3310775401580994e-04 -1.2563667021667667e-03 0.0000000000000000e+00  2.8474488917705223e-03 -1.2759882384540547e-03 0.0000000000000000e+00  5.5338287831274815e-03 -1.3164210221888321e-03 0.0000000000000000e+00  8.3651698018801061e-03 -1.3793144682822057e-03 0.0000000000000000e+00  8.4588759150904663e-03 -5.3175441166486740e-04 0.0000000000000000e+00  8.3579632650349241e-03 3.1609458373412701e-04 0.0000000000000000e+00  6.0848792493382259e-03 2.1819624601698644e-04 0.0000000000000000e+00  3.9705371671837283e-03 1.3671389817961261e-04 0.0000000000000000e+00  1.9597303274219700e-03 6.5778663420411522e-05 0.0000000000000000e+00  0.0000000000000000e+00 0.0000000000000000e+00 0.0000000000000000e+00  0.0000000000000000e+00 0.0000000000000000e+00 0.0000000000000000e+00  -1.3331917840354980e-03 1.6767883800562563e-04 0.0000000000000000e+00  -2.7030335373782089e-03 3.4324172714487766e-04 0.0000000000000000e+00  -4.1471862101083549e-03 5.3480641772357337e-04 0.0000000000000000e+00  -5.7051115866675250e-03 7.5097649235758069e-04 0.0000000000000000e+00  -5.7769114575463298e-03 -4.7480327766582939e-04 0.0000000000000000e+00  -5.7087392037444449e-03 -1.7013697284186131e-03 0.0000000000000000e+00  -3.6392818055110813e-03 -1.6336476158109023e-03 0.0000000000000000e+00  -1.6736005326796481e-03 -1.5966355459058512e-03 0.0000000000000000e+00  2.4134059021280448e-04 -1.5891978616592005e-03 0.0000000000000000e+00  2.1572588830448972e-03 -1.6111051874045060e-03 0.0000000000000000e+00  4.1258747309967552e-03 -1.6630335092244315e-03 0.0000000000000000e+00  6.2002309205076451e-03 -1.7465663044662887e-03 0.0000000000000000e+00  6.2651954698888321e-03 -5.2597171987105878e-04 0.0000000000000000e+00  6.1886180575705819e-03 6.9468010275425317e-04 0.0000000000000000e+00  4.5083633576030995e-03 4.9361399142911519e-04 0.0000000000000000e+00  2.9431159440782423e-03 3.1627036922156321e-04 0.0000000000000000e+00  1.4530134188013692e-03 1.5433995894042167e-04 0.0000000000000000e+00  0.0000000000000000e+00 0.0000000000000000e+00 0.0000000000000000e+00  0.0000000000000000e+00 0.0000000000000000e+00 0.0000000000000000e+00  -6.7489885521606187e-04 2.1957872002844044e-04 0.0000000000000000e+00  -1.3687385940318413e-03 4.4834518266199952e-04 0.0000000000000000e+00  -2.1010397624240344e-03 6.9572378288023425e-04 0.0000000000000000e+00  -2.8921786632695999e-03 9.7162039007552014e-04 0.0000000000000000e+00  -2.9315909980046780e-03 -4.9052313993565701e-04 0.0000000000000000e+00  -2.8978596621104095e-03 -1.9531102925208568e-03 0.0000000000000000e+00  -1.8046753527668179e-03 -1.8675580113932432e-03 0.0000000000000000e+00  -7.6614053059302742e-04 -1.8186540046567468e-03 0.0000000000000000e+00  2.4586678109549099e-04 -1.8051260794150572e-03 0.0000000000000000e+00  1.2587770628923875e-03 -1.8266266551597045e-03 0.0000000000000000e+00  2.3000193918974636e-03 -1.8837325229224600e-03 0.0000000000000000e+00  3.3977127471398684e-03 -1.9779460053491529e-03 0.0000000000000000e+00  3.4273953161548507e-03 -5.1784934429034962e-04 0.0000000000000000e+00  3