<?xml version="1.0"?>
<VTKFile type="UnstructuredGrid"  version="0.1"  >
<UnstructuredGrid>
<Piece  NumberOfPoints="589" NumberOfCells="1080">
<Points>
<DataArray  type="Float64"  NumberOfComponents="3"  format="ascii">-9 0 0  -8 0 0  -7 0 0  -6 0 0  -5 0 0  -4 0 0  -3 0 0  -2 0 0  -1 0 0  0 0 0  1 0 0  2 0 0  3 0 0  4 0 0  5 0 0  6 0 0  7 0 0  8 0 0  9 0 0  -9 2 0  -8.000000805179518 1.999999173368041 0  -7.000001717198765 1.999998397934584 0  -6.000002914856983 1.999997709100927 0  -5.000004746639137 1.999997102347744 0  -4.000003378519955 1.999997970694589 0  -3.000001848834057 1.999998527067623 0  -2.000000921276043 1.999998932234475 0  -1.000000390274484 1.999999243150497 0  -1.028565742257518e-07 1.999999376164985 0  1.000000163237181 1.99999929141826 0  2.000000619159837 1.999999005959487 0  3.000001420317059 1.999998626080939 0  4.00000263899619 1.99999815553407 0  5.000004293190312 1.999997802668003 0  6.000002620192638 1.999998088810039 0  7.000001537660053 1.999998603854725 0  8.000000719823865 1.999999265578116 0  9 2 0  -9 4 0  -8.000001182998307 3.999998141945385 0  -7.000002291839987 3.999996449472928 0  -6.000003293214576 3.99999508988205 0  -5.00000421477679 3.999994234960814 0  -4.000002525763088 3.999994499935421 0  -3.000001199866383 3.999995648524621 0  -2.000000432410405 3.99999713768762 0  -1.000000151020342 3.999998301658873 0  -1.555525502903778e-07 3.99999877525419 0  0.999999822255826 3.99999843873289 0  2.000000051331334 3.999997475448659 0  3.000000792504784 3.999996142365372 0  4.000002096518948 3.999994784980401 0  5.000003690269118 3.999994225979531 0  6.000002878518509 3.999995262011905 0  7.000002016531269 3.999996620998165 0  8.000001047595966 3.999998240365721 0  9 4 0  -9 6 0  -8.000001857441102 5.999996448204786 0  -7.000003296350239 5.99999316949422 0  -6.00000399082456 5.99999045199197 0  -5.000003836629287 5.999988588303559 0  -4.000001060897372 5.999990104996325 0  -2.999999526212818 5.999993326630888 0  -1.999999391138338 5.999996705218472 0  -0.9999998683905194 5.999998617647189 0  -3.689003805703903e-07 5.99999904760366 0  0.9999992465832874 5.999998430952935 0  1.99999910528167 5.999996743054669 0  2.999999373941853 5.999993942415753 0  4.000000396524095 5.999991045145229 0  5.000002802626193 5.999989654169201 0  6.000003337793392 5.999991143405689 0  7.000002923193633 5.999993596626062 0  8.00000169000738 5.999996654096396 0  9 6 0  -9 8 0  -8.000004206148601 7.999993662164794 0  -7.000007278590783 7.999987644723218 0  -6.000008083115085 7.999982398885024 0  -5.000005558611043 7.999978699706845 0  -4.000000876173852 7.999985559955716 0  -3.000001110435924 7.999993632353406 0  -2.000002212393785 7.999997694968059 0  -1.000001854258528 7.999998356702972 0  -4.382049186090785e-07 7.999998560544558 0  1.000000768708824 7.999998854485979 0  2.000000910316322 7.999997167824656 0  2.999999579805445 7.999994149953072 0  3.999999658477299 7.999987290114713 0  5.000004420725356 7.999979683658273 0  6.000007596116997 7.999983168913632 0  7.000007104177206 7.999988155294369 0  8.000004159679056 7.999993914127265 0  9 8 0  -9 10 0  -8.00001108952444 9.999989594684294 0  -7.000020332313007 9.999979033740015 0  -6.00002549135016 9.999968159466921 0  -5.000023386192876 9.999956807304374 0  -4.000016487230596 9.999977703050295 0  -3.000016499083771 9.9999958566807 0  -2.000012702557941 9.999993463273951 0  -1.000006132270717 9.999992695480381 0  -1.069656373815665e-06 9.9999925177473 0  1.000003955534889 9.999992477546137 0  2.000010323945107 9.999992181767505 0  3.000016546503794 9.999997780285831 0  4.000016924609082 9.999980665203623 0  5.000024495542211 9.999958545143492 0  6.000026523460496 9.999969190167647 0  7.000021095200013 9.999979624300167 0  8.000011489938544 9.999989866098121 0  9 10 0  -9 12 0  -8.000025359183875 11.99998614996941 0  -7.000049719985024 11.99997167648185 0  -6.000071954344839 11.99995583229351 0  -5.000090683077237 11.99993757366967 0  -4.00008764222648 11.9999735892017 0  -3.000089915448048 12.00000924704985 0  -2.000061114922426 12.00000487264126 0  -1.000030379671275 12.00000251424459 0  1.037330638478898e-06 12.0000020058792 0  1.000032792597461 12.00000340333811 0  2.00006467987986 12.00000716468609 0  3.000095956577774 12.00001446414289 0  4.000093788982211 11.99997619204998 0  5.000095572762786 11.99993767826168 0  6.000075274130571 11.99995605552317 0  7.000051793506404 11.99997186298659 0  8.000026358438129 11.99998624987252 0  9 12 0  -9 14 0  -8.000043621107029 13.99998519933714 0  -7.000087611432563 13.99996980246185 0  -6.000132436494784 13.99995316348637 0  -5.000178804130557 13.99993454265725 0  -4.000179581886943 13.99997407232496 0  -3.000178952894306 14.0000141801474 0  -2.000117268596123 14.00000821850654 0  -1.0000573551664 14.00000493332611 0  1.791469132515297e-06 14.00000387111098 0  1.000061103303141 14.00000487406266 0  2.000121481450999 14.00000799590609 0  3.000183787142906 14.00001341857904 0  4.000185191217838 13.99997393793648 0  5.000185113743065 13.99993477875812 0  6.000136749666619 13.99995320109053 0  7.000090307762701 13.99996978458614 0  8.000044919261359 13.99998518101063 0  9 14 0  -9 16 0  -8.000060404531535 15.99998663369466 0  -7.000122161285521 15.99997289714628 0  -6.000186744113912 15.99995842254314 0  -5.000255883462505 15.99994285712225 0  -4.000258446883357 15.99997388543885 0  -3.000255525422584 16.00000470041717 0  -2.000166343001976 16.00000085981602 0  -1.000081265364156 15.99999846156112 0  1.884807907227163e-06 15.99999747657936 0  1.000085150578034 15.99999787010443 0  2.000170576756966 15.99999962468722 0  3.000260348910846 16.00000272888392 0  4.000263555502664 15.99997225429367 0  5.000261138601877 15.99994175841522 0  6.000190531668649 15.99995770252355 0  7.000124605470781 15.99997245485353 0  8.000061601383596 15.99998642209023 0  9 16 0  -9 18 0  -8.000071777815686 17.99998954902528 0  -7.000145403184296 17.99997894413992 0  -6.000222821089082 17.99996804501278 0  -5.000306172566502 17.99995674124446 0  -4.000309633788008 17.99997325486632 0  -3.000305937240903 17.99998974939473 0  -2.00019902835621 17.99998773930631 0  -1.000097468028301 17.99998633757462 0  1.515635737780891e-06 17.99998556889022 0  1.000100558271705 17.9999854227552 0  2.00020229270545 17.99998585578501 0  3.000309474490968 17.99998678532328 0  4.000313339724838 17.99997095473494 0  5.000309949048771 17.99995519983111 0  6.000225585693626 17.99996697129587 0  7.000147211571342 17.99997826563391 0  8.000072670876678 17.99998922050887 0  9 18 0  -9 20 0  -8.000075759507896 19.9999930799246 0  -7.000153472231678 19.99998616804971 0  -6.000235159353704 19.99997928588116 0  -5.000322976884799 19.99997248209598 0  -4.000326614209563 19.99997256567509 0  -3.000322787953932 19.99997263878512 0  -2.000210324585841 19.99997218577292 0  -1.000103359863566 19.99997168083272 0  9.104850625382659e-07 19.99997117147482 0  1.000105200993503 19.99997065918424 0  2.000212223957774 19.99997010120126 0  3.000324776737516 19.99996940835046 0  4.000328632230103 19.99997012786097 0  5.000325015190806 19.99997089860162 0  6.000236678101928 19.99997814851258 0  7.000154479007429 19.99998543421287 0  8.000076260949946 19.99999272038129 0  8.999999999998167 20 0  -9 22 0  -8.00007192718077 21.9999965779403 0  -7.000145641220538 21.9999932730383 0  -6.000222971874339 21.999990213085 0  -5.000305833042616 21.99998754724398 0  -4.000309162076044 21.99997184153545 0  -3.000305740288186 21.99995613296229 0  -2.000199630991554 21.99995683989061 0  -1.000098476170915 21.99995704174939 0  2.247146782839524e-07 21.99995678578761 0  1.000098916176311 21.99995607835189 0  2.000200040757559 21.99995488598654 0  3.000306093087996 21.99995313526208 0  4.000309458040361 21.99996961640761 0  5.000306105570596 21.9999861322244 0  6.000223214291554 21.99998918242127 0  7.000145819914547 21.99999260080442 0  8.000072021445913 21.99999624634883 0  9 22 0  -9 24 0  -8.000060946363309 23.9999996072709 0  -7.00012334145384 23.99999939815188 0  -6.000188658504851 23.99999956371871 0  -5.000258418161798 24.00000030984928 0  -4.000261150505364 23.9999711565078 0  -3.000258448608758 23.99994200968268 0  -2.000169123848732 23.99994351391173 0  -1.000083778748843 23.99994423360439 0  -4.232380916494541e-07 23.99994420565567 0  1.000082901149337 23.99994343687615 0  2.000168151207004 23.99994190379615 0  3.000257311807287 23.99993955310334 0  4.000259899487276 23.99996936095477 0  5.000257124205644 23.9999991968973 0  6.000187759199672 23.99999874345876 0  7.000122775017021 23.9999988586602 0  8.000060672910157 23.99999933981875 0  9 24 0  -9 26 0  -8.000044169489081 26.00000190213815 0  -7.000089351501776 26.0000040244768 0  -6.000136571024965 26.00000659201997 0  -5.000186876631389 26.00000983914132 0  -4.000188853222739 25.99997056262714 0  -3.000187049586891 25.99993129816859 0  -2.000122702685838 25.9999333277698 0  -1.000061124821563 25.99993441555649 0  -9.465277492955901e-07 25.99993458837664 0  1.000059185644965 25.99993385211597 0  2.000120623928535 25.99993219153792 0  3.000184733057965 25.99992957125623 0  4.000186388458982 25.99996931546185 0  5.000184359880835 26.00000908237581 0  6.000134777346084 26.00000602987254 0  7.000088199743848 26.0000036526476 0  8.000043606672207 26.00000171717317 0  9 26 0  -9 28 0  -8.000023341351412 28.0000033161977 0  -7.000047209211517 28.00000686996446 0  -6.000072135268801 28.00001090196439 0  -5.000098660812553 28.00001565875754 0  -4.00009980521037 27.99997009226512 0  -3.00009898871468 27.99992454127523 0  -2.000065209237601 27.99992690815449 0  -1.000032874367982 27.99992825680056 0  -1.28569865440181e-06 27.99992860687449 0  1.000030248248154 27.99992796366624 0  2.000062417508902 27.99992631781958 0  3.000095916148232 27.99992364601516 0  4.000096566850305 27.99996945036583 0  5.000095367499907 28.00001527444176 0  6.000069772301067 28.00001061516358 0  7.000045684217947 28.00000667963464 0  8.000022593818148 28.00000322
[...]
<PointData  Vectors="f_44-0"> 
<DataArray  type="Float64"  Name="f_44-0"  NumberOfComponents="3" format="ascii">0.0000000000000000e+00 0.0000000000000000e+00 0.0000000000000000e+00  -5.1594820605244248e-09 -1.4237687856886305e-01 0.0000000000000000e+00  1.2238847857543105e-08 -1.3968785583876014e-01 0.0000000000000000e+00  1.1128666561788801e-08 -1.0988486347606694e-01 0.0000000000000000e+00  0.0000000000000000e+00 0.0000000000000000e+00 0.0000000000000000e+00  0.0000000000000000e+00 0.0000000000000000e+00 0.0000000000000000e+00  0.0000000000000000e+00 0.0000000000000000e+00 0.0000000000000000e+00  0.0000000000000000e+00 0.0000000000000000e+00 0.0000000000000000e+00  0.0000000000000000e+00 0.0000000000000000e+00 0.0000000000000000e+00  0.0000000000000000e+00 0.0000000000000000e+00 0.0000000000000000e+00  0.0000000000000000e+00 0.0000000000000000e+00 0.0000000000000000e+00  0.0000000000000000e+00 0.0000000000000000e+00 0.0000000000000000e+00  0.0000000000000000e+00 0.0000000000000000e+00 0.0000000000000000e+00  0.0000000000000000e+00 0.0000000000000000e+00 0.0000000000000000e+00  0.0000000000000000e+00 0.0000000000000000e+00 0.0000000000000000e+00  -4.9563272110891063e-09 -1.4279248527730981e-01 0.0000000000000000e+00  1.2596675749456526e-08 -1.4001971002590657e-01 0.0000000000000000e+00  1.0832454498966476e-08 -1.0995490637447708e-01 0.0000000000000000e+00  0.0000000000000000e+00 0.0000000000000000e+00 0.0000000000000000e+00  0.0000000000000000e+00 0.0000000000000000e+00 0.0000000000000000e+00  5.6253477099254809e-05 -1.2313143630179403e-01 0.0000000000000000e+00  5.2994778588841881e-04 -1.3946176843702632e-01 0.0000000000000000e+00  1.0987418591452422e-03 -1.2331636706447639e-01 0.0000000000000000e+00  5.4059981278936124e-05 -1.2383058288456558e-04 0.0000000000000000e+00  1.0061467949497717e-04 -1.5482137303603452e-04 0.0000000000000000e+00  6.9841294530695092e-05 -1.2189647735002782e-04 0.0000000000000000e+00  7.1509057261946740e-05 -6.1008007285145898e-05 0.0000000000000000e+00  5.0767233661108945e-05 -2.7834100181621823e-05 0.0000000000000000e+00  2.3774712024060239e-05 -2.5728355453523408e-05 0.0000000000000000e+00  -4.6192815928234966e-06 -5.0818176134849531e-05 0.0000000000000000e+00  -2.2792513528369176e-05 -9.2136642833750735e-05 0.0000000000000000e+00  -3.2886858846350473e-05 -1.5092812396964110e-04 0.0000000000000000e+00  -3.5323135400425952e-05 -1.7746600821566977e-04 0.0000000000000000e+00  -5.5706187269057607e-05 -3.0280112677559491e-04 0.0000000000000000e+00  1.5099222549398234e-04 -1.2344958274372279e-01 0.0000000000000000e+00  6.3291369166265589e-04 -1.3978240919349344e-01 0.0000000000000000e+00  1.2098924356909494e-03 -1.2356378914496872e-01 0.0000000000000000e+00  0.0000000000000000e+00 0.0000000000000000e+00 0.0000000000000000e+00  0.0000000000000000e+00 0.0000000000000000e+00 0.0000000000000000e+00  3.7804730122612034e-04 -1.2336003798419158e-01 0.0000000000000000e+00  -2.6318553038324931e-05 -1.3834723999421550e-01 0.0000000000000000e+00  4.5733150047104791e-04 -1.2374900454697080e-01 0.0000000000000000e+00  -1.7906333569649266e-04 -2.9786098510047428e-04 0.0000000000000000e+00  -4.8464539903846683e-05 -1.7148760742052391e-04 0.0000000000000000e+00  6.7763301812977540e-06 -2.3623176005134130e-05 0.0000000000000000e+00  2.3692590494777135e-05 2.7538043366907511e-05 0.0000000000000000e+00  -7.3320751220404558e-06 1.7665544053531092e-05 0.0000000000000000e+00  -3.5012109955336695e-05 -1.3655864438559881e-05 0.0000000000000000e+00  -4.7424606858798312e-05 -3.8331586855283488e-05 0.0000000000000000e+00  -2.0206182272860480e-05 -1.0489190179410267e-04 0.0000000000000000e+00  -3.5392589623762759e-06 -1.8449103360417308e-04 0.0000000000000000e+00  1.8187193232638319e-05 -1.9382214168218548e-04 0.0000000000000000e+00  6.2152343882715364e-05 -1.2581111910055194e-04 0.0000000000000000e+00  4.9997809289570013e-04 -1.2366729435757111e-01 0.0000000000000000e+00  1.0570110349188419e-04 -1.3862341416636056e-01 0.0000000000000000e+00  5.7392209259686251e-04 -1.2396032388702023e-01 0.0000000000000000e+00  0.0000000000000000e+00 0.0000000000000000e+00 0.0000000000000000e+00  0.0000000000000000e+00 0.0000000000000000e+00 0.0000000000000000e+00  3.5239454786027637e-04 -1.2347730986336487e-01 0.0000000000000000e+00  -9.9462744027637709e-05 -1.3825428003807189e-01 0.0000000000000000e+00  2.6868596751851784e-04 -1.2372338513611257e-01 0.0000000000000000e+00  -2.3527886163539282e-04 -3.0006994276701265e-04 0.0000000000000000e+00  -6.5141590551419430e-05 -8.8516860776391331e-05 0.0000000000000000e+00  -1.0769570879370030e-05 7.5988024711832208e-07 0.0000000000000000e+00  -7.1477990745358035e-05 -9.2605592140644540e-05 0.0000000000000000e+00  -5.9604453209072512e-05 -1.1482396427600930e-04 0.0000000000000000e+00  -2.5532791046445367e-05 -3.1955310990469022e-05 0.0000000000000000e+00  -5.7805898765996852e-06 -1.2376782206574301e-05 0.0000000000000000e+00  -4.3680970883262961e-05 -7.4277658183171831e-05 0.0000000000000000e+00  -2.2205465672938332e-05 -1.7598984415980468e-04 0.0000000000000000e+00  6.5181020705480894e-05 -4.1630824033710422e-04 0.0000000000000000e+00  8.0882668353314264e-05 -6.0572362357988972e-04 0.0000000000000000e+00  6.5004256534078209e-04 -1.2380755829055637e-01 0.0000000000000000e+00  2.0316087432814206e-04 -1.3843508157061629e-01 0.0000000000000000e+00  5.0618454451061598e-04 -1.2372614680331580e-01 0.0000000000000000e+00  0.0000000000000000e+00 0.0000000000000000e+00 0.0000000000000000e+00  0.0000000000000000e+00 0.0000000000000000e+00 0.0000000000000000e+00  1.5566962414620354e-04 -1.2317389167536821e-01 0.0000000000000000e+00  -4.3972744245496676e-04 -1.3812128422346173e-01 0.0000000000000000e+00  -2.2961909927663612e-04 -1.2371536107773680e-01 0.0000000000000000e+00  -8.6663227526263256e-04 -8.8463503796849211e-04 0.0000000000000000e+00  -7.1951280530941090e-04 -3.7226524070673378e-04 0.0000000000000000e+00  -2.8235096495028553e-04 -4.2742037019970327e-04 0.0000000000000000e+00  -2.9953127936103839e-04 -4.8587938083350307e-04 0.0000000000000000e+00  -4.6484888412475230e-05 -2.3807827148195125e-04 0.0000000000000000e+00  9.3211360892502337e-05 -1.9290419348117610e-04 0.0000000000000000e+00  2.7389116110238524e-04 -4.0171915558544295e-04 0.0000000000000000e+00  2.9735653193778590e-04 -1.2424727514260550e-04 0.0000000000000000e+00  8.7764416560078288e-04 -4.4089664133036233e-04 0.0000000000000000e+00  9.1913563553938800e-04 -1.1579986543919440e-03 0.0000000000000000e+00  7.4891528690394641e-04 -1.4270860358082348e-03 0.0000000000000000e+00  9.9151353791668783e-04 -1.2371274255709158e-01 0.0000000000000000e+00  4.8838683658400221e-04 -1.3813459397681616e-01 0.0000000000000000e+00  6.4083961537855837e-04 -1.2336563390533339e-01 0.0000000000000000e+00  0.0000000000000000e+00 0.0000000000000000e+00 0.0000000000000000e+00  0.0000000000000000e+00 0.0000000000000000e+00 0.0000000000000000e+00  -2.6519574620097506e-04 -1.2224049846107886e-01 0.0000000000000000e+00  -1.2998291866350368e-03 -1.3734890399966057e-01 0.0000000000000000e+00  -1.4283816779377620e-03 -1.2358601437996050e-01 0.0000000000000000e+00  -3.3541199409319760e-03 -8.4414151579349057e-04 0.0000000000000000e+00  -2.5239109417679122e-03 -1.9576537995704156e-04 0.0000000000000000e+00  -1.7521513566600502e-03 3.6491611045326146e-04 0.0000000000000000e+00  -4.9537454453446779e-04 -1.0670999568016409e-03 0.0000000000000000e+00  -1.6571716521591177e-04 -5.5415207797813808e-04 0.0000000000000000e+00  2.0463788456492632e-04 -4.5793887957581926e-04 0.0000000000000000e+00  5.5356412281085338e-04 -4.7728555400730995e-04 0.0000000000000000e+00  8.3844784723157502e-04 -5.4132682213905352e-04 0.0000000000000000e+00  2.2895501165957326e-03 -3.8813804254362341e-04 0.0000000000000000e+00  2.6325023050093300e-03 -1.5017874098204097e-03 0.0000000000000000e+00  3.1869240097036383e-03 -2.7337120964786988e-03 0.0000000000000000e+00  2.1288355636057566e-03 -1.2326709026434871e-01 0.0000000000000000e+00  1.2329543185001790e-03 -1.3731185977927962e-01 0.0000000000000000e+00  9.7921852588184438e-04 -1.2252478915494713e-01 0.0000000000000000e+00  0.0000000000000000e+00 0.0000000000000000e+00 0.0000000000000000e+00  0.0000000000000000e+00 0.0000000000000000e+00 0.0000000000000000e+00  -9.3652093650951689e-04 -1.2019306704344145e-01 0.0000000000000000e+00  -2.7196892448853316e-03 -1.3534814119505159e-01 0.0000000000000000e+00  -3.5615331543922516e-03 -1.2226078841886945e-01 0.0000000000000000e+00  -5.0684980449825110e-03 -2.2347370957549570e-03 0.0000000000000000e+00  -5.3954448752853079e-03 -3.2699080713908711e-04 0.0000000000000000e+00  -6.1422988360477163e-03 2.1337686516593353e-03 0.0000000000000000e+00  -3.4892247703834540e-03 -3.5187391147757773e-03 0.0000000000000000e+00  -1.4925029764696440e-03 -4.2369863397024501e-03 0.0000000000000000e+00  3.6759819590166448e-04 -4.2498764658277302e-03 0.0000000000000000e+00  2.1863729535194806e-03 -3.8306753040514090e-03 0.0000000000000000e+00  3.7120102213565862e-03 -2.5705608768580345e-03 0.0000000000000000e+00  4.8435924485494509e-03 3.8781869500860357e-04 0.0000000000000000e+00  5.3487130906756863e-03 -1.3134007635017318e-03 0.0000000000000000e+00  5.9582312393919815e-03 -2.6712261264572839e-03 0.0000000000000000e+00  4.3442784975056391e-03 -1.2190420521354185e-01 0.0000000000000000e+00  2.5906613421394086e-03 -1.3537477437077536e-01 0.0000000000000000e+00  1.5813055217660046e-03 -1.2071126728179565e-01 0.0000000000000000e+00  0.0000000000000000e+00 0.0000000000000000e+00 0.0000000000000000e+00  0.0000000000000000e+00 0.0000000000000000e+00 0.0000000000000000e+00  -1.7743923232221702e-03 -1.1660678359376773e-01 0.0000000000000000e+00  -4.5363047074133958e-03 -1.3153807151446709e-01 0.0000000000000000e+00  -6.4876325750015482e-03 -1.1909739857667936e-01 0.0000000000000000e+00  -8.0956385729854356e-03 -3.0896532375437207e-03 0.0000000000000000e+00  -8.3859911664800387e-03 -1.1200236566846461e-03 0.0000000000000000e+00  -8.5220785283164797e-03 4.8033152791999528e-04 0.0000000000000000e+00  -5.9803603472714118e-03 -7.6391782541286209e-03 0.0000000000000000e+00  -2.8197775431290000e-03 -9.2708055055088535e-03 0.0000000000000000e+00  3.4761696123110261e-04 -9.5368859555019607e-03 0.0000000000000000e+00  3.4771446821890203e-03 -9.0092534422709682e-03 0.0000000000000000e+00  6.5040371871940917e-03 -6.7438874705065188e-03 0.0000000000000000e+00  8.3840789145129598e-03 1.2026189890048406e-03 0.0000000000000000e+00  8.6836286484239331e-03 -7.6722384259810005e-04 0.0000000000000000e+00  8.8233300519065996e-03 -2.8541459953290885e-03 0.0000000000000000e+00  7.2618306874224457e-03 -1.1850839049730125e-01 0.0000000000000000e+00  4.4076718263497752e-03 -1.3170022928695563e-01 0.0000000000000000e+00  2.3796974788965817e-03 -1.1744214174386390e-01 0.0000000000000000e+00  0.0000000000000000e+00 0.0000000000000000e+00 0.0000000000000000e+00  0.0000000000000000e+00 0.0000000000000000e+00 0.0000000000000000e+00  -2.5797431632047746e-03 -1.1136740655828210e-01 0.0000000000000000e+00  -6.2877409902445261e-03 -1.2573453730071163e-01 0.0000000000000000e+00  -9.3167728401967621e-03 -1.1385831394945904e-01 0.0000000000000000e+00  -1.1617803401911207e-02 -3.2232954355247440e-03 0.0000000000000000e+00  -1.1914186632585188e-02 -1.5516385376177846e-03 0.0000000000000000e+00  -1.1956607308653007e-02 1.3900924809380499e-04 0.0000000000000000e+00  -8.5175772655523580e-03 -1.4688541565137820e-02 0.0000000000000000e+00  -4.1336756703139466e-03 -1.6708000394294226e-02 0.0000000000000000e+00  2.8861741286488287e-04 -1.7094496444566728e-02 0.0000000000000000e+00  4.7062131666576554e-03 -1.6575771234214567e-02 0.0000000000000000e+00  9.1306548606225751e-03 -1.3471819738156697e-02 0.0000000000000000e+00  1.1834197348700197e-02 1.1758997778079741e-03 0.0000000000000000e+00  1.2118797735048467e-02 -5.1290798839883375e-04 0.0000000000000000e+00  1.2155405242126920e-02 -2.1053270012034060e-03 0.0000000000000000e+00  1.0027672527696672e-02 -1.1305432115044210e-01 0.0000000000000000e+00  6.1987689200224154e-03 -1.2598601754192182e-01 0.0000000000000000e+00  3.1792429057249838e-03 -1.1249510163219836e-01 0.0000000000000000e+00  0.0000000000000000e+00 0.0000000000000000e+00 0.0000000000000000e+00  0.0000000000000000e+00 0.0000000000000000e+00 0.0000000000000000e+00  -3.1659216938543710e-03 -1.0474902489932268e-01 0.0000000000000000e+00  -7.5607799373527121e-03 -1.1824642255003950e-01 0.0000000000000000e+00  -1.1391294449783075e-02 -1.0687155260630181e-01 0.0000000000000000e+00  -1.4369865924349736e-02 -2.7545640707703038e-03 0.0000000000000000e+00  -1.4617381239475882e-02 -1.7082920241451485e-03 0.0000000000000000e+00  -1.4469188897433443e-02 -7.0319450557273914e-04 0.0000000000000000e+00  -1.0480272212606839e-02 -2.3721599917443659e-02 0.0000000000000000e+00  -5.1731897990425204e-03 -2.6419860156196476e-02 0.0000000000000000e+00  1.8883515922788854e-04 -2.6789590477244891e-02 0.0000000000000000e+00  5.5536089967833753e-03 -2.6303002752550785e-02 0.0000000000000000e+00  1.0991351485918049e-02 -2.2348627920571958e-02 0.0000000000000000e+00  1.4539099093098990e-02 6.3472223197800657e-04 0.0000000000000000e+00  1.4796842848201144e-02 -3.6830594705264337e-04 0.0000000000000000e+00  1.4659212958929314e-02 -1.3382884702438230e-03 0.0000000000000000e+00  1.2093354816046344e-02 -1.0584328709983709e-01 0.0000000000000000e+00  7.5423898070449448e-03 -1.1852330152899690e-01 0.0000000000000000e+00  3.7848703131584615e-03 -1.0607004366106251e-01 0.0000000000000000e+00  0.0000000000000000e+00 0.0000000000000000e+00 0.0000000000000000e+00  0.0000000000000000e+00 0.0000000000000000e+00 0.0000000000000000e+00  -3.4118097328214069e-03 -9.7330732437548639e-02 0.0000000000000000e+00  -8.0921497237802526e-03 -1.0974607968379642e-01 0.0000000000000000e+00  -1.2297075822374262e-02 -9.8816682810161330e-02 0.0000000000000000e+00  -1.5709225445528649e-02 -1.9496036161943380e-03 0.0000000000000000e+00  -1.5905945194793554e-02 -1.7536180139172343e-03 0.0000000000000000e+00  -1.5679463631753526e-02 -1.5836522484989084e-03 0.0000000000000000e+00  -1.1367626376070132e-02 -3.4014682037833872e-02 0.0000000000000000e+00  -5.6981700455199609e-03 -3.7478327325654877e-02 0.0000000000000000e+00  7.0479484810585870e-05 -3.7808597539460614e-02 0.0000000000000000e+00  5.8460182894361995e-03 -3.7361502315042781e-02 0.0000000000000000e+00  1.1752215712175813e-02 -3.2542454872210871e-02 0.0000000000000000e+00  1.5815450465040154e-02 -2.2010433903014859e-04 0.0000000000000000e+00  1.6014423326144684e-02 -3.7695044295225574e-04 0.0000000000000000e+00  1.5785351597937401e-02 -5.1061708188660502e-04 0.0000000000000000e+00  1.2981213883906923e-02 -9.7661888694665466e-02 0.0000000000000000e+00  8.1483276409343702e-03 -1.0999355922961207e-01 0.0000000000000000e+00  4.0610285719474871e-03 -9.8708192994843541e-02 0.0000000000000000e+00  1.9845042702863123e-11 1.0927423448907130e-09 0.0000000000000000e+00  0.0000000000000000e+00 0.0000000000000000e+00 0.0000000000000000e+00  -3.2674024895762931e-03 -8.9858230502570441e-02 0.0000000000000000e+00  -7.7751527286947404e-03 -1.0110100894857346e-01 0.0000000000000000e+00  -1.1868955100475592e-02 -9.0548656962866597e-02 0.0000000000000000e+00  -1.5360044407749641e-02 -1.0150096659536972e-03 0.0000000000000000e+00  -1.5503246365395112e-02 -1.7028262875933688e-03 0.0000000000000000e+00  -1.5240995481121752e-02 -2.4056105880927948e-03 0.0000000000000000e+00  -1.1045757732326397e-02 -4.4417865696050440e-02 0.0000000000000000e+00  -5.6167416618592486e-03 -4.8746393699003708e-02 0.0000000000000000e+00  -5.0519518578210723e-05 -4.9033384479459464e-02 0.0000000000000000e+00  5.5282430003268908e-03 -4.8628356858800389e-02 0.0000000000000000e+00  1.1283547587219596e-02 -4.2993578018973785e-02 0.0000000000000000e+00  1.5393085907786080e-02 -1.1931649977054753e-03 0.0000000000000000e+00  1.5532998189624034e-02 -4.6551838581963242e-04 0.0000000000000000e+00  1.5269541985567276e-02 2.7826898866102574e-04 0.0000000000000000e+00  1.2537139740337308e-02 -8.9393755141079834e-02 0.0000000000000000e+00  7.9007119892646298e-03 -1.0129573871031279e-01 0.0000000000000000e+00  3.9482760639689947e-03 -9.1153949026580541e-02 0.0000000000000000e+00  0.0000000000000000e+00 0.0000000000000000e+00 0.0000000000000000e+00  0.0000000000000000e+00 0.0000000000000000e+00 0.0000000000000000e+00  -2.7433371641136513e-03 -8.3110721097825010e-02 0.0000000000000000e+00  -6.6347725218558317e-03 -9.3219771885483846e-02 0.0000000000000000e+00  -1.0146534765886624e-02 -8.2948504986086025e-02 0.0000000000000000e+00  -1.3328743985026224e-02 -1.0109498349719027e-04 0.0000000000000000e+00  -1.3413786354904218e-02 -1.5930880158010878e-03 0.0000000000000000e+00  -1.3158006461449044e-02 -3.0937761855670746e-03 0.0000000000000000e+00  -9.5354853800243798e-03 -5.3823057006919944e-02 0.0000000000000000e+00  -4.9340281770278238e-03 -5.9026101837507020e-02 0.0000000000000000e+00  -1.5917082353651265e-04 -5.9282042085894611e-02 0.0000000000000000e+00  4.6330029330629054e-03 -5.8918672214362221e-02 0.0000000000000000e+00  9.6356242345486936e-03 -5.2595833838647493e-02 0.0000000000000000e+00  1.3292683861973237e-02 -2.1301985363215642e-03 0.0000000000000000e+00  1.3369821246801861e-02 -6.0326556827663893e-04 0.0000000000000000e+00  1.3109557593627714e-02 9.3238701140662718e-04 0.0000000000000000e+00  1.0802674120930722e-02 -8.1930390546810963e-02 0.0000000000000000e+00  6.8206047556394781e-03 -9.3356117667250396e-02 0.0000000000000000e+00  3.4531808124137033e-03 -8.4200607276402620e-02 0.0000000000000000e+00  0.0000000000000000e+00 0.0000000000000000e+00 0.0000000000000000e+00  0.0000000000000000e+00 0.0000000000000000e+00 0.0000000000000000e+00  -1.8971163053024028e-03 -7.7793164024491282e-02 0.0000000000000000e+00  -4.7969575685577158e-03 -8.6929125238081037e-02 0.0000000000000000e+00  -7.3249459842179279e-03 -7.6812671678621408e-02 0.0000000000000000e+00  -9.8441874708375121e-03 6.7927175555834534e-04 0.0000000000000000e+00  -9.8682241748321905e-03 -1.4494801164147346e-03 0.0000000000000000e+00  -9.6472443768096314e-03 -3.5825194883814717e-03 0.0000000000000000e+00  -7.0083150050093725e-03 -6.1244314050957947e-02 0.0000000000000000e+00  -3.7284214466305090e-03 -6.7233799124344476e-02 0.0000000000000000e+00  -2.4450126063467454e-04 -6.7475966383473265e-02 0.0000000000000000e+00  3.2603510926406056e-03 -6.7151799591812139e-02 0.0000000000000000e+00  6.9972034299725459e-03 -6.0344751363816458e-02 0.0000000000000000e+00  9.7527712856389521e-03 -2.9206275013046240e-03 0.0000000000000000e+00  9.7641798231105567e-03 -7.6625435765315271e-04 0.0000000000000000e+00  9.5355898689718655e-03 1.3925961736241884e-03 0.0000000000000000e+00  7.9721249542534720e-03 -7.6054563048977133e-02 0.0000000000000000e+00  5.0291114630798802e-03 -8.7011530952321850e-02 0.0000000000000000e+00  2.6298378534446460e-03 -7.8576877038150403e-02 0.0000000000000000e+00  0.0000000000000000e+00 0.0000000000000000e+00 0.0000000000000000e+00  0.0000000000000000e+00 0.0000000000000000e+00 0.0000000000000000e+00  -8.1987713033337885e-04 -7.4457194468097246e-02 0.0000000000000000e+00  -2.4592254885137227e-03 -8.2882712674935827e-02 0.0000000000000000e+00  -3.7104026915312964e-03 -7.2772430059901611e-02 0.0000000000000000e+00  -5.2975447206764226e-03 1.2503627786174397e-03 0.0000000000000000e+00  -5.2585934964955294e-03 -1.2872467318912084e-03 0.0000000000000000e+00  -5.0904104616461840e-03 -3.8264911671648267e-03 0.0000000000000000e+00  -3.7383423896040608e-03 -6.5919288009834515e-02 0.0000000000000000e+00  -2.1321106502849730e-03 -7.2516500928884106e-02 0.0000000000000000e+00  -2.9889075930517446e-04 -7.2761890356219938e-02 0.0000000000000000e+00  1.5575226149867423e-03 -7.2472512979279091e-02 0.0000000000000000e+00  3.6551714987435977e-03 -6.5443375514344954e-02 0.0000000000000000e+00  5.1713369111509250e-03 -3.4900971417521831e-03 0.0000000000000000e+00  5.1153469142288426e