<?xml version="1.0"?>
<VTKFile type="UnstructuredGrid"  version="0.1"  >
<UnstructuredGrid>
<Piece  NumberOfPoints="589" NumberOfCells="1080">
<Points>
<DataArray  type="Float64"  NumberOfComponents="3"  format="ascii">-9 0 0  -8 0 0  -7 0 0  -6 0 0  -5 0 0  -4 0 0  -3 0 0  -2 0 0  -1 0 0  0 0 0  1 0 0  2 0 0  3 0 0  4 0 0  5 0 0  6 0 0  7 0 0  8 0 0  9 0 0  -9 2 0  -8.000001054192696 1.99999885599068 0  -7.000002243046781 1.999997795088015 0  -6.000003800944456 1.999996877740628 0  -5.000006195248862 1.999996107617492 0  -4.000004318019328 1.999997247408342 0  -3.000002248088752 1.999998022907874 0  -2.00000103132305 1.99999861704991 0  -1.000000398637276 1.999999076148192 0  -1.262882120487805e-07 1.999999274195698 0  1.000000115139035 1.999999147235155 0  2.000000639971746 1.999998722597105 0  3.000001674530399 1.999998168277181 0  4.00000331570073 1.999997503845111 0  5.000005565138851 1.999997054835528 0  6.00000338959399 1.999997396237578 0  7.000001991652322 1.999998079327738 0  8.000000934488636 1.999998984297294 0  9 2 0  -9 4 0  -8.000001569736696 3.999997379561219 0  -7.000003009916759 3.999995015960468 0  -6.000004256256375 3.999993166587846 0  -5.000005345600212 3.999992090786993 0  -4.000002959119311 3.999992464964989 0  -3.000001138161787 3.99999417164421 0  -2.000000181563271 3.999996385415201 0  -0.9999999767322791 3.999998127743029 0  -2.055597985657134e-07 3.999998836493897 0  0.9999995402848044 3.999998326164156 0  1.999999667644114 3.999996881631142 0  3.000000573882339 3.999994893403509 0  4.000002347141155 3.999992877669696 0  5.000004603418257 3.999992092590902 0  6.000003668765186 3.99999342572714 0  7.000002620187463 3.999995271144675 0  8.000001378272726 3.999997525668765 0  9 4 0  -9 6 0  -8.000002603501871 5.999994875802356 0  -7.000004552149764 5.999990179940259 0  -6.000005339556648 5.999986361164313 0  -5.000004808177363 5.999983868170484 0  -4.000000746529473 5.999986187374112 0  -2.999998588749502 5.999991087514267 0  -1.999998596198697 5.999996224951772 0  -0.9999995422060057 5.999999119902395 0  -5.188657580323354e-07 5.999999755415126 0  0.9999986787162206 5.999998824836125 0  1.99999824088536 5.999996268636698 0  2.999998443495212 5.999992008821009 0  3.999999819058187 5.999987602049589 0  5.000003319722575 5.999985475812511 0  6.00000440363934 5.999987406107739 0  7.000004022067715 5.999990826556014 0  8.000002367481398 5.999995187832681 0  9 6 0  -9 8 0  -8.000006254799821 7.999990658789239 0  -7.000010739323805 7.999981835667725 0  -6.000011698001387 7.999974252699695 0  -5.000007526160658 7.999969135554841 0  -4.000000449830168 7.999979667791644 0  -3.000001039568768 7.999992057683417 0  -2.000002951844494 7.999998242215262 0  -1.000002604061783 7.999999172508943 0  -6.062316448281151e-07 7.999999455374366 0  1.000001057699794 7.999999943582924 0  2.000001102269962 7.999997380398065 0  2.999998840328854 7.999992849773039 0  3.999998681301078 7.999982329971172 0  5.000005802310576 7.999970615568904 0  6.000011000418917 7.999975425991138 0  7.000010515946583 7.99998261874561 0  8.000006208213584 7.999991046508325 0  9 8 0  -9 10 0  -8.000016986827132 9.999984369732976 0  -7.0000310298064 9.999968531256155 0  -6.000038578125483 9.999952281719839 0  -5.000034613818839 9.999935428153405 0  -4.000023985406244 9.999968014677256 0  -3.00002445576215 9.999996251658722 0  -2.00001902210057 9.999992224700273 0  -1.000009118081479 9.999990933359935 0  -1.572807456880829e-06 9.999990629664815 0  1.000005912313052 9.99999059162319 0  2.000015505506336 9.999990208919446 0  3.000024654113418 9.999999262603854 0  4.000024838256095 9.999972693625235 0  5.000036572203934 9.9999381728879 0  6.000040326779858 9.999953917137226 0  7.000032302398403 9.999969471246521 0  8.000017650545157 9.999984802498206 0  9 10 0  -9 12 0  -8.000039492635681 11.99997891412506 0  -7.000077296340959 11.99995687208428 0  -6.000111501386872 11.99993272859016 0  -5.00013976338462 11.9999048843902 0  -4.000134862153128 11.99996195566124 0  -3.000138724733938 12.00001846443439 0  -2.000094674805792 12.00001155392516 0  -1.000047120262085 12.00000781174995 0  1.710199637811423e-06 12.00000700572509 0  1.000051066841134 12.00000923128573 0  2.000100414045278 12.00001519975468 0  3.000148317074713 12.00002672426994 0  4.00014452674792 11.99996616893913 0  5.000147467683651 11.99990520336186 0  6.000116765535884 11.99993317014161 0  7.000080596972869 11.99995721600052 0  8.000041086515091 11.99997909401038 0  9 12 0  -9 14 0  -8.000068751010968 13.99997728381695 0  -7.000137952536284 13.99995361981592 0  -6.000208188422695 13.99992797985393 0  -5.000280384060775 13.99989918240733 0  -4.000281438065931 13.9999630173002 0  -3.000280831566672 14.00002774859044 0  -2.000184351928766 14.00001821112155 0  -1.000090228804163 14.00001294662295 0  2.88904870396697e-06 14.00001125642105 0  1.000096263422615 14.0000129005152 0  2.000191107578085 14.00001796818987 0  3.000288548640775 14.00002674975554 0  4.000290383429757 13.99996296280419 0  5.000290427330913 13.99989965989698 0  6.00021506232377 13.99992810933563 0  7.000142254647973 13.99995363363786 0  8.000070823883 13.99997727441751 0  9 14 0  -9 16 0  -8.000096203210742 15.99997944515149 0  -7.000194464562655 15.99995827218738 0  -6.000297025683888 15.9999358622385 0  -5.000406512155298 15.99991161017286 0  -4.000410495493348 15.99996307491148 0  -3.000406136661427 16.00001421008143 0  -2.000264613612732 16.00000777970169 0  -1.000129320990508 16.00000378690023 0  3.041828951009066e-06 16.00000217224857 0  1.000135585541174 16.00000287769014 0  2.000271423454126 16.00000588331671 0  3.000413879030474 16.00001119053395 0  4.000418702861746 15.9999605757307 0  5.000414961623067 15.99990992214501 0  6.000303117603013 15.99993475046078 0  7.000198397290109 15.99995758637322 0  8.000098129281003 15.99997911614244 0  9 16 0  -9 18 0  -8.000115417636358 17.99998407898024 0  -7.000233770975734 17.99996787278124 0  -6.000358149735146 17.9999511135405 0  -5.000491953766002 17.99993357216337 0  -4.000497526479433 17.99996242449119 0  -3.000491730321049 17.99999124014851 0  -2.000319966421714 17.9999876001791 0  -1.000156699991686 17.99998511694949 0  2.47072992084954e-06 17.999983810062 0  1.000161736167611 17.99998365641131 0  2.000325280422133 17.99998459421083 0  3.000497483272624 17.99998651313966 0  4.000503570181446 17.99995873122577 0  5.000498128284254 17.99993106230266 0  6.000362665045811 17.99994936188904 0  7.000236722542387 17.99996676410741 0  8.000116875082115 17.99998354163292 0  9 18 0  -9 20 0  -8.000122885600609 19.99998985337064 0  -7.00024896854626 19.99997968547541 0  -6.000381560979787 19.99996949334331 0  -5.00052420367098 19.99995931139206 0  -4.000530217854629 19.99996163563411 0  -3.000524003975479 19.99996393389628 0  -2.000341342861813 19.99996279498217 0  -1.000167702538386 19.99996174304941 0  1.520499996234247e-06 19.99996083635304 0  1.000170777369083 19.99996007067558 0  2.000344515719095 19.99995938173416 0  3.000527329254751 19.99995864181211 0  4.000533610735499 19.99995759214815 0  5.000527642906333 19.99995662074846 0  6.000384117085146 19.99996756274753 0  7.000250660136016 19.9999784405486 0  8.000123727338003 19.99998924358777 0  8.999999999998353 20 0  -9 22 0  -8.000117561034306 21.99999571265051 0  -7.000238121463661 21.99999159493198 0  -6.000364760023742 21.99998783218027 0  -5.000500712319701 21.99998464132297 0  -4.00050633857563 21.99996072595615 0  -3.000500608064046 21.99993679446609 0  -2.000326649085947 21.99993764192183 0  -1.000161042063997 21.99993778837359 0  4.34967897601615e-07 21.99993729875413 0  1.000161898796265 21.99993617811311 0  2.000327463263489 21.99993437313162 0  3.000501341559514 21.99993177167394 0  4.000506992802686 21.99995693145962 0  5.000501335485828 21.99998214494738 0  6.000365282404879 21.99998602010416 0  7.000238494384707 21.99999041580186 0  8.000117754580591 21.99999513181683 0  9 22 0  -9 24 0  -8.000100235905071 24.00000089330247 0  -7.000202955427421 24.00000208436688 0  -6.000310693422295 24.00000388320123 0  -5.000426084809978 24.00000662418704 0  -4.000430774305347 23.99995979875172 0  -3.00042611580566 23.99991297136215 0  -2.000278559549888 23.99991529201564 0  -1.000137867206664 23.99991637718632 0  -5.974320309551595e-07 23.99991628444923 0  1.000136623912065 23.99991502206813 0  2.000277168319156 23.99991254947127 0  3.000424469389626 23.99990877760094 0  4.000428943897101 23.99995666361351 0  5.000424181564787 24.00000459290262 0  6.000309377203404 24.00000239503924 0  7.000202129670973 24.00000110959816 0  8.000099838240457 24.00000041122056 0  9 24 0  -9 26 0  -8.000072973024604 26.00000488287952 0  -7.000147709630382 26.00001014264473 0  -6.000226003250386 26.00001616546415 0  -5.000309705357134 26.00002335582435 0  -4.000313110445133 25.99995893287998 0  -3.000309902237503 25.99989451764778 0  -2.000203025213693 25.99989788262701 0  -1.000101007248512 25.99989967639339 0  -1.43563062313401e-06 25.99989994747448 0  1.000098062946012 25.99989870559883 0  2.000199859186851 25.99989592153771 0  3.000306358346494 25.99989152778811 0  4.000309315394294 25.99995671567501 0  5.000305813039183 26.00002193720223 0  6.000223234796031 26.00001512016858 0  7.000145934606941 26.00000945507515 0  8.000072106443449 26.00000454196141 0  9 26 0  -9 28 0  -8.00003865231975 28.00000736492311 0  -7.000078229082828 28.0000151486797 0  -6.000119668662113 28.00002377747779 0  -5.000163936102727 28.00003369195239 0  -4.000165858829078 27.99995818537684 0  -3.000164321044265 27.99988269404215 0  -2.000108065702011 27.99988675697794 0  -1.000054366964849 27.99988906518179 0  -1.980937093699883e-06 27.99988966128799 0  1.000050317336509 27.99988855671527 0  2.000103750355317 27.99988573094005 0  3.000159554854931 27.99988113223219 0  4.000160804266556 27.99995703343378 0  5.000158772553904 28.00003296161059 0  6.000115970184007 28.00002323754912 0  7.000075845245575 28.00001479266886 0  8.000037484710191 28.
[...]
<PointData  Vectors="f_44-0"> 
<DataArray  type="Float64"  Name="f_44-0"  NumberOfComponents="3" format="ascii">0.0000000000000000e+00 0.0000000000000000e+00 0.0000000000000000e+00  -6.1867523637042973e-09 -2.0827341834740432e-01 0.0000000000000000e+00  1.6850001104871026e-08 -2.0452905803615595e-01 0.0000000000000000e+00  1.7829811536728728e-08 -1.6307768043805701e-01 0.0000000000000000e+00  0.0000000000000000e+00 0.0000000000000000e+00 0.0000000000000000e+00  0.0000000000000000e+00 0.0000000000000000e+00 0.0000000000000000e+00  0.0000000000000000e+00 0.0000000000000000e+00 0.0000000000000000e+00  0.0000000000000000e+00 0.0000000000000000e+00 0.0000000000000000e+00  0.0000000000000000e+00 0.0000000000000000e+00 0.0000000000000000e+00  0.0000000000000000e+00 0.0000000000000000e+00 0.0000000000000000e+00  0.0000000000000000e+00 0.0000000000000000e+00 0.0000000000000000e+00  0.0000000000000000e+00 0.0000000000000000e+00 0.0000000000000000e+00  0.0000000000000000e+00 0.0000000000000000e+00 0.0000000000000000e+00  0.0000000000000000e+00 0.0000000000000000e+00 0.0000000000000000e+00  0.0000000000000000e+00 0.0000000000000000e+00 0.0000000000000000e+00  -5.9894912710627970e-09 -2.0888914444210602e-01 0.0000000000000000e+00  1.7220239124300485e-08 -2.0503792168406090e-01 0.0000000000000000e+00  1.7393394372829789e-08 -1.6323408468865835e-01 0.0000000000000000e+00  0.0000000000000000e+00 0.0000000000000000e+00 0.0000000000000000e+00  0.0000000000000000e+00 0.0000000000000000e+00 0.0000000000000000e+00  9.2121241267138247e-05 -1.8135291766103145e-01 0.0000000000000000e+00  7.2975544274523328e-04 -2.0415788228379528e-01 0.0000000000000000e+00  1.6169122828666599e-03 -1.8169891185095599e-01 0.0000000000000000e+00  9.5868585487162588e-05 -1.5022456109473111e-04 0.0000000000000000e+00  1.5336536994820839e-04 -1.9657618301761011e-04 0.0000000000000000e+00  1.0465861459625044e-04 -1.4966648430929459e-04 0.0000000000000000e+00  1.0132517034772255e-04 -6.5148794042692377e-05 0.0000000000000000e+00  6.9237656720796370e-05 -1.8520585877177104e-05 0.0000000000000000e+00  2.9781313535018208e-05 -1.7134778323168491e-05 0.0000000000000000e+00  -1.1470922350154724e-05 -5.3854590646424297e-05 0.0000000000000000e+00  -3.8803364546512600e-05 -1.1236563648625002e-04 0.0000000000000000e+00  -5.6881957044535452e-05 -1.9602090255299340e-04 0.0000000000000000e+00  -6.6931794080798228e-05 -2.3084503846052012e-04 0.0000000000000000e+00  -1.0182132403022621e-04 -3.9155200033616494e-04 0.0000000000000000e+00  1.9784758232085125e-04 -1.8182606914801161e-01 0.0000000000000000e+00  8.4854327061872122e-04 -2.0465024556887718e-01 0.0000000000000000e+00  1.7453033487162147e-03 -1.8209634592777812e-01 0.0000000000000000e+00  0.0000000000000000e+00 0.0000000000000000e+00 0.0000000000000000e+00  0.0000000000000000e+00 0.0000000000000000e+00 0.0000000000000000e+00  5.9531899280272128e-04 -1.8179208378456188e-01 0.0000000000000000e+00  -4.2581633927920341e-05 -2.0262215499698458e-01 0.0000000000000000e+00  7.0281043520945409e-04 -1.8229890647488850e-01 0.0000000000000000e+00  -2.2102743904876257e-04 -3.8596139737049197e-04 0.0000000000000000e+00  -4.2421340686070012e-05 -2.0047587801287267e-04 0.0000000000000000e+00  2.8002259452290246e-05 6.4383152181551635e-06 0.0000000000000000e+00  4.2753521129688646e-05 7.4699800324830805e-05 0.0000000000000000e+00  -7.5127121888259357e-06 5.0477582938386213e-05 0.0000000000000000e+00  -5.0194690186804099e-05 -4.9985341037700298e-07 0.0000000000000000e+00  -6.9819918468598801e-05 -3.3546085153141612e-05 0.0000000000000000e+00  -3.0987401843395968e-05 -1.2662074237605205e-04 0.0000000000000000e+00  -1.2389731785461911e-05 -2.3762230152357582e-04 0.0000000000000000e+00  7.1291360000003060e-06 -2.4125047679351080e-04 0.0000000000000000e+00  5.3142109501665480e-05 -1.4859558022980803e-04 0.0000000000000000e+00  7.3523426198891155e-04 -1.8224984803902014e-01 0.0000000000000000e+00  1.0666918945136904e-04 -2.0304752273546275e-01 0.0000000000000000e+00  8.2885030949068992e-04 -1.8264601647591006e-01 0.0000000000000000e+00  0.0000000000000000e+00 0.0000000000000000e+00 0.0000000000000000e+00  0.0000000000000000e+00 0.0000000000000000e+00 0.0000000000000000e+00  5.5513587403561787e-04 -1.8196500162101259e-01 0.0000000000000000e+00  -1.3727428761019309e-04 -2.0253910438832884e-01 0.0000000000000000e+00  4.5997933790580100e-04 -1.8227755572892207e-01 0.0000000000000000e+00  -3.1824092787597724e-04 -3.3472167555631511e-04 0.0000000000000000e+00  -8.1538060479892678e-05 -2.9213278766266767e-05 0.0000000000000000e+00  -1.3835232243387431e-05 7.7608980546680316e-05 0.0000000000000000e+00  -1.0919164919695380e-04 -9.7312059850633976e-05 0.0000000000000000e+00  -8.8410158174158479e-05 -1.5152541342130049e-04 0.0000000000000000e+00  -3.4417623855402260e-05 -2.7577636250387947e-05 0.0000000000000000e+00  -1.9423517867792843e-06 6.2671608536338560e-06 0.0000000000000000e+00  -5.7994934387380770e-05 -7.0864445417391587e-05 0.0000000000000000e+00  -2.8302287500496999e-05 -1.9678367598874641e-04 0.0000000000000000e+00  8.6055812503054951e-05 -5.3597830807378989e-04 0.0000000000000000e+00  8.4628193498690246e-05 -8.1005136182333410e-04 0.0000000000000000e+00  9.3831344389822045e-04 -1.8244465743335031e-01 0.0000000000000000e+00  2.4344748467351984e-04 -2.0282513254373649e-01 0.0000000000000000e+00  7.4570315093258567e-04 -1.8232852134891914e-01 0.0000000000000000e+00  0.0000000000000000e+00 0.0000000000000000e+00 0.0000000000000000e+00  0.0000000000000000e+00 0.0000000000000000e+00 0.0000000000000000e+00  2.9086571276400804e-04 -1.8157137085441435e-01 0.0000000000000000e+00  -5.9324363453906162e-04 -2.0238709704290470e-01 0.0000000000000000e+00  -2.3756811200674927e-04 -1.8226853745794230e-01 0.0000000000000000e+00  -1.2231435070476399e-03 -1.1406348553187218e-03 0.0000000000000000e+00  -1.0654690363680218e-03 -4.0696312504546366e-04 0.0000000000000000e+00  -3.9763834193139944e-04 -5.6504416815536963e-04 0.0000000000000000e+00  -4.2841460848039807e-04 -7.0249161281340546e-04 0.0000000000000000e+00  -4.7758964152726406e-05 -3.2701289700766151e-04 0.0000000000000000e+00  1.4490458659257357e-04 -2.5950285591111704e-04 0.0000000000000000e+00  4.0803508912736657e-04 -5.8555674624850872e-04 0.0000000000000000e+00  4.2321100972142267e-04 -1.2934377757079955e-04 0.0000000000000000e+00  1.3144295363127468e-03 -5.9311152393452186e-04 0.0000000000000000e+00  1.3787644774792727e-03 -1.6359995717966172e-03 0.0000000000000000e+00  1.0753552403010098e-03 -1.9759185537801954e-03 0.0000000000000000e+00  1.3962497502480659e-03 -1.8231242770699349e-01 0.0000000000000000e+00  6.3147359429848110e-04 -2.0242100188126627e-01 0.0000000000000000e+00  9.3063102964652744e-04 -1.8184123775557032e-01 0.0000000000000000e+00  0.0000000000000000e+00 0.0000000000000000e+00 0.0000000000000000e+00  0.0000000000000000e+00 0.0000000000000000e+00 0.0000000000000000e+00  -2.7320565583686756e-04 -1.8030971447933486e-01 0.0000000000000000e+00  -1.7610523320548473e-03 -2.0133946970869873e-01 0.0000000000000000e+00  -1.8846837406343566e-03 -1.8208189098202676e-01 0.0000000000000000e+00  -4.9923438127511110e-03 -8.2869184963663589e-04 0.0000000000000000e+00  -3.7565592496317367e-03 -3.9692357671746135e-05 0.0000000000000000e+00  -2.5206012946948548e-03 6.4385112551811291e-04 0.0000000000000000e+00  -6.0863589718541944e-04 -1.5405308320992235e-03 0.0000000000000000e+00  -1.8884527617441950e-04 -7.4736443516704252e-04 0.0000000000000000e+00  3.2009492363361218e-04 -5.9986015024428296e-04 0.0000000000000000e+00  7.9744663027650649e-04 -6.2791852556397872e-04 0.0000000000000000e+00  1.1484451589236959e-03 -7.1212042141404744e-04 0.0000000000000000e+00  3.3906312387129221e-03 -5.5618152854020769e-04 0.0000000000000000e+00  3.9231724683934776e-03 -2.1309407852177203e-03 0.0000000000000000e+00  4.6480080746879142e-03 -3.7877292632659621e-03 0.0000000000000000e+00  2.9391859611971180e-03 -1.8170736128900805e-01 0.0000000000000000e+00  1.6354589507126221e-03 -2.0130471178616513e-01 0.0000000000000000e+00  1.3874214766256010e-03 -1.8069418248001384e-01 0.0000000000000000e+00  0.0000000000000000e+00 0.0000000000000000e+00 0.0000000000000000e+00  0.0000000000000000e+00 0.0000000000000000e+00 0.0000000000000000e+00  -1.1632160800462102e-03 -1.7752914828387217e-01 0.0000000000000000e+00  -3.6504827002442823e-03 -1.9863217461231156e-01 0.0000000000000000e+00  -4.6737846898825992e-03 -1.8028683970175230e-01 0.0000000000000000e+00  -7.0266548561210250e-03 -2.7407995830589314e-03 0.0000000000000000e+00  -7.5496375946867353e-03 -1.6773915797257293e-04 0.0000000000000000e+00  -8.6966492247026149e-03 3.2624246067408315e-03 0.0000000000000000e+00  -4.7825432466136845e-03 -4.7980928898423512e-03 0.0000000000000000e+00  -2.0353624021916231e-03 -5.7651434391086257e-03 0.0000000000000000e+00  4.9034005589821805e-04 -5.7663066578225791e-03 0.0000000000000000e+00  2.9366579954670574e-03 -5.2132083877290143e-03 0.0000000000000000e+00  4.9449807476054661e-03 -3.5434526778174986e-03 0.0000000000000000e+00  6.6477388114191743e-03 4.2597163813782582e-04 0.0000000000000000e+00  7.4371127607824024e-03 -1.8117070587240526e-03 0.0000000000000000e+00  8.3574953911639046e-03 -3.5313125583438139e-03 0.0000000000000000e+00  5.9284353829876461e-03 -1.7987540626994064e-01 0.0000000000000000e+00  3.4532383040618230e-03 -1.9868605221917449e-01 0.0000000000000000e+00  2.1936087521649038e-03 -1.7822180312102376e-01 0.0000000000000000e+00  0.0000000000000000e+00 0.0000000000000000e+00 0.0000000000000000e+00  0.0000000000000000e+00 0.0000000000000000e+00 0.0000000000000000e+00  -2.2853086993491257e-03 -1.7264884055553320e-01 0.0000000000000000e+00  -6.0925746065844015e-03 -1.9347983283499640e-01 0.0000000000000000e+00  -8.6078379904497362e-03 -1.7599243497388306e-01 0.0000000000000000e+00  -1.0775582493582734e-02 -4.0228782435450909e-03 0.0000000000000000e+00  -1.1222499041302561e-02 -1.3842444124656794e-03 0.0000000000000000e+00  -1.1449598106829649e-02 6.9185657495289099e-04 0.0000000000000000e+00  -8.0703773959049548e-03 -1.0358379738532710e-02 0.0000000000000000e+00  -3.8074909006066237e-03 -1.2549853836965984e-02 0.0000000000000000e+00  4.5391125097713272e-04 -1.2901455271370391e-02 0.0000000000000000e+00  4.6581084683707747e-03 -1.2214180483761867e-02 0.0000000000000000e+00  8.7054326109671683e-03 -9.2062554507066682e-03 0.0000000000000000e+00  1.1172362483064985e-02 1.6996981322542734e-03 0.0000000000000000e+00  1.1623518254237365e-02 -9.3782896506411579e-04 0.0000000000000000e+00  1.1849677630169714e-02 -3.7619508649436536e-03 0.0000000000000000e+00  9.8462529317368090e-03 -1.7527305464103593e-01 0.0000000000000000e+00  5.9024553801474491e-03 -1.9373286204647769e-01 0.0000000000000000e+00  3.2647496808167675e-03 -1.7376686373027264e-01 0.0000000000000000e+00  0.0000000000000000e+00 0.0000000000000000e+00 0.0000000000000000e+00  0.0000000000000000e+00 0.0000000000000000e+00 0.0000000000000000e+00  -3.3795280584161549e-03 -1.6549381519710105e-01 0.0000000000000000e+00  -8.4761529887817343e-03 -1.8561093138115917e-01 0.0000000000000000e+00  -1.2454231862999890e-02 -1.6885114849475300e-01 0.0000000000000000e+00  -1.5363424231150148e-02 -4.3419304796651296e-03 0.0000000000000000e+00  -1.5813146952446084e-02 -2.0734403940510875e-03 0.0000000000000000e+00  -1.5931864603257767e-02 2.2661857008830579e-04 0.0000000000000000e+00  -1.1503521120680777e-02 -1.9953897452410458e-02 0.0000000000000000e+00  -5.5933571060866926e-03 -2.2575568323293865e-02 0.0000000000000000e+00  3.8015946953045768e-04 -2.3097366864219319e-02 0.0000000000000000e+00  6.3392873921429603e-03 -2.2442033231314509e-02 0.0000000000000000e+00  1.2288393690043000e-02 -1.8367240645684679e-02 0.0000000000000000e+00  1.5657404901651170e-02 1.8030324627880930e-03 0.0000000000000000e+00  1.6082046662555596e-02 -4.9797767553438671e-04 0.0000000000000000e+00  1.6186218425306913e-02 -2.6539564757116258e-03 0.0000000000000000e+00  1.3590041689981314e-02 -1.6785570490126961e-01 0.0000000000000000e+00  8.3373936910563461e-03 -1.8600567200959836e-01 0.0000000000000000e+00  4.3438633603606917e-03 -1.6701039190795583e-01 0.0000000000000000e+00  0.0000000000000000e+00 0.0000000000000000e+00 0.0000000000000000e+00  0.0000000000000000e+00 0.0000000000000000e+00 0.0000000000000000e+00  -4.1928468218710904e-03 -1.5641645040394375e-01 0.0000000000000000e+00  -1.0239962300749529e-02 -1.7541732041424934e-01 0.0000000000000000e+00  -1.5327942948571090e-02 -1.5927770012785983e-01 0.0000000000000000e+00  -1.9036187504131458e-02 -3.8002115419706545e-03 0.0000000000000000e+00  -1.9405977721357038e-02 -2.3454659676335732e-03 0.0000000000000000e+00  -1.9237014434199888e-02 -9.5476716178107977e-04 0.0000000000000000e+00  -1.4200391039525409e-02 -3.2308331807740780e-02 0.0000000000000000e+00  -7.0224250516527772e-03 -3.5740113793420160e-02 0.0000000000000000e+00  2.5204736549814117e-04 -3.6223647029040414e-02 0.0000000000000000e+00  7.5228966255077483e-03 -3.5638767769460157e-02 0.0000000000000000e+00  1.4873759913395389e-02 -3.0515185419119430e-02 0.0000000000000000e+00  1.9271013223732397e-02 1.1748917604342318e-03 0.0000000000000000e+00  1.9651111304804753e-02 -2.2154946589311974e-04 0.0000000000000000e+00  1.9493573380142657e-02 -1.5663556834376782e-03 0.0000000000000000e+00  1.6435713208947534e-02 -1.5798508112743340e-01 0.0000000000000000e+00  1.0190739248176761e-02 -1.7586477298985256e-01 0.0000000000000000e+00  5.1700364743405679e-03 -1.5820175951784102e-01 0.0000000000000000e+00  0.0000000000000000e+00 0.0000000000000000e+00 0.0000000000000000e+00  0.0000000000000000e+00 0.0000000000000000e+00 0.0000000000000000e+00  -4.5542998391625688e-03 -1.4619711178505049e-01 0.0000000000000000e+00  -1.1011844269369533e-02 -1.6379737807401615e-01 0.0000000000000000e+00  -1.6640200288824257e-02 -1.4818464195678485e-01 0.0000000000000000e+00  -2.0888324527261221e-02 -2.7524017783510661e-03 0.0000000000000000e+00  -2.1174956126859764e-02 -2.4415290909338707e-03 0.0000000000000000e+00  -2.0879197725859878e-02 -2.1741784154219491e-03 0.0000000000000000e+00  -1.5450256281939259e-02 -4.6465192737029107e-02 0.0000000000000000e+00  -7.7588864573603930e-03 -5.0796499275209829e-02 0.0000000000000000e+00  1.0083363400066455e-04 -5.1204234245117511e-02 0.0000000000000000e+00  7.9623248695349317e-03 -5.0702631059229501e-02 0.0000000000000000e+00  1.5989049428726289e-02 -4.4533099085293008e-02 0.0000000000000000e+00  2.1043355934809351e-02 7.0331745677609748e-05 0.0000000000000000e+00  2.1330280971312905e-02 -1.8944581982650231e-04 0.0000000000000000e+00  2.1027586990641757e-02 -4.1043968132316636e-04 0.0000000000000000e+00  1.7697800029843114e-02 -1.4671789381347611e-01 0.0000000000000000e+00  1.1051860551625624e-02 -1.6421404052371510e-01 0.0000000000000000e+00  5.5537086806752376e-03 -1.4806588853425412e-01 0.0000000000000000e+00  4.6833174838169435e-10 7.8081440272025758e-11 0.0000000000000000e+00  0.0000000000000000e+00 0.0000000000000000e+00 0.0000000000000000e+00  -4.3870347465373490e-03 -1.3586113733437175e-01 0.0000000000000000e+00  -1.0628266711215684e-02 -1.5193460492419120e-01 0.0000000000000000e+00  -1.6135897858793654e-02 -1.3674766487284315e-01 0.0000000000000000e+00  -2.0505033460580833e-02 -1.4809776679541502e-03 0.0000000000000000e+00  -2.0704374381790226e-02 -2.3765926378677433e-03 0.0000000000000000e+00  -2.0338593176342956e-02 -3.3000206175557720e-03 0.0000000000000000e+00  -1.5051553717411348e-02 -6.0841304211643604e-02 0.0000000000000000e+00  -7.6662236386782351e-03 -6.6202842864757416e-02 0.0000000000000000e+00  -5.3748270072035388e-05 -6.6521849500110336e-02 0.0000000000000000e+00  7.5686931630046190e-03 -6.6107315229720243e-02 0.0000000000000000e+00  1.5428311827634374e-02 -5.8966291198831580e-02 0.0000000000000000e+00  2.0565297958279157e-02 -1.2454246295038941e-03 0.0000000000000000e+00  2.0758514197765893e-02 -2.9728272614355214e-04 0.0000000000000000e+00  2.0389419664548658e-02 6.8012752975399814e-04 0.0000000000000000e+00  1.7144653336127687e-02 -1.3527098476642307e-01 0.0000000000000000e+00  1.0748341231528093e-02 -1.5227955615424660e-01 0.0000000000000000e+00  5.4087196932903004e-03 -1.3762470624051268e-01 0.0000000000000000e+00  0.0000000000000000e+00 0.0000000000000000e+00 0.0000000000000000e+00  0.0000000000000000e+00 0.0000000000000000e+00 0.0000000000000000e+00  -3.6978122798243846e-03 -1.2649518320451250e-01 0.0000000000000000e+00  -9.1082248831689545e-03 -1.4108618901001502e-01 0.0000000000000000e+00  -1.3844568696550694e-02 -1.2619769211053256e-01 0.0000000000000000e+00  -1.7857571581508812e-02 -1.9753960865583688e-04 0.0000000000000000e+00  -1.7962823859372781e-02 -2.2037105542296550e-03 0.0000000000000000e+00  -1.7588513325126651e-02 -4.2281798329132274e-03 0.0000000000000000e+00  -1.3012887912901507e-02 -7.3892414539547313e-02 0.0000000000000000e+00  -6.7428855294019516e-03 -8.0308731262061728e-02 0.0000000000000000e+00  -1.9233700277939932e-04 -8.0552402646179813e-02 0.0000000000000000e+00  6.3750525497191599e-03 -8.0220080160754811e-02 0.0000000000000000e+00  1.3236753531959163e-02 -7.2273101947959259e-02 0.0000000000000000e+00  1.7827458903012586e-02 -2.5544646380932616e-03 0.0000000000000000e+00  1.7921534975128561e-02 -5.0187594951489058e-04 0.0000000000000000e+00  1.7540589538941248e-02 1.5686411890435074e-03 0.0000000000000000e+00  1.4811616426749869e-02 -1.2488994763114428e-01 0.0000000000000000e+00  9.2965831252949018e-03 -1.4134230540618617e-01 0.0000000000000000e+00  4.7394271903860126e-03 -1.2798259825819910e-01 0.0000000000000000e+00  0.0000000000000000e+00 0.0000000000000000e+00 0.0000000000000000e+00  0.0000000000000000e+00 0.0000000000000000e+00 0.0000000000000000e+00  -2.5603132387677506e-03 -1.1909288911338965e-01 0.0000000000000000e+00  -6.6153478259135950e-03 -1.3240832694459667e-01 0.0000000000000000e+00  -1.0019209091445488e-02 -1.1766071900441999e-01 0.0000000000000000e+00  -1.3230955436618971e-02 9.3143684711697672e-04 0.0000000000000000e+00  -1.3239198322099828e-02 -1.9617495505896039e-03 0.0000000000000000e+00  -1.2900358274962380e-02 -4.8655371660645723e-03 0.0000000000000000e+00  -9.5596646564982436e-03 -8.4226270438644113e-02 0.0000000000000000e+00  -5.0919762663334065e-03 -9.1604900213019536e-02 0.0000000000000000e+00  -3.0110498316586232e-04 -9.1797938707034302e-02 0.0000000000000000e+00  4.5118369725832934e-03 -9.1536366992072030e-02 0.0000000000000000e+00  9.6594223439675567e-03 -8.3037383179823981e-02 0.0000000000000000e+00  1.3127829194092670e-02 -3.6935871692306398e-03 0.0000000000000000e+00  1.3119683358372398e-02 -7.6620445908457476e-04 0.0000000000000000e+00  1.2771208333958036e-02 2.1716353011514700e-03 0.0000000000000000e+00  1.0953625332024453e-02 -1.1668399252598731e-01 0.0000000000000000e+00  6.8556005243710118e-03 -1.3257313518381150e-01 0.0000000000000000e+00  3.6173029004935874e-03 -1.2016486116345768e-01 0.0000000000000000e+00  0.0000000000000000e+00 0.0000000000000000e+00 0.0000000000000000e+00  0.0000000000000000e+00 0.0000000000000000e+00 0.0000000000000000e+00  -1.0977812295344209e-03 -1.1443838482713137e-01 0.0000000000000000e+00  -3.4193735246721246e-03 -1.2682192689963948e-01 0.0000000000000000e+00  -5.0778066642944821e-03 -1.1203667515674913e-01 0.0000000000000000e+00  -7.1456316151590014e-03 1.7879516680036399e-03 0.0000000000000000e+00  -7.0566472001467213e-03 -1.6781493486606801e-03 0.0000000000000000e+00  -6.7840359574222082e-03 -5.1490728592395269e-03 0.0000000000000000e+00  -5.0687077303951467e-03 -9.0755716180939416e-02 0.0000000000000000e+00  -2.8956819563922005e-03 -9.8892920664332834e-02 0.0000000000000000e+00  -3.7041109802186278e-04 -9.9064083414509355e-02 0.0000000000000000e+00  2.1802043650254893e-03 -9.8856347082434418e-02 0.0000000000000000e+00  5.0879023807058436e-03 -9.0126076773366093e-02 0.0000000000000000e+00  6.9960186155669903e-03 -4.5466189448960734e-03 0.0000000000000000e+00  6.8859425250420367e-03