<?xml version="1.0"?>
<VTKFile type="UnstructuredGrid"  version="0.1"  >
<UnstructuredGrid>
<Piece  NumberOfPoints="589" NumberOfCells="1080">
<Points>
<DataArray  type="Float64"  NumberOfComponents="3"  format="ascii">-9 0 0  -8 0 0  -7 0 0  -6 0 0  -5 0 0  -4 0 0  -3 0 0  -2 0 0  -1 0 0  0 0 0  1 0 0  2 0 0  3 0 0  4 0 0  5 0 0  6 0 0  7 0 0  8 0 0  9 0 0  -9 2 0  -8.000002703263965 1.99999550813294 0  -7.000005735422571 1.999991580816143 0  -6.000009832034762 1.999988678158921 0  -5.000016641478995 1.99998700502126 0  -4.000009615591495 1.999990201977118 0  -3.000002316974706 1.999993307533839 0  -1.99999874826676 1.999996247714156 0  -0.9999981470973057 1.999998552411493 0  6.298062579244476e-07 1.999999494702713 0  0.9999993695564483 1.999998610847894 0  1.999999842482093 1.999996038304111 0  3.000003285743379 1.99999281817842 0  4.000010199435208 1.999989136598614 0  5.000020364213818 1.999986882864741 0  6.000012643817549 1.999987874138265 0  7.000007636404474 1.999990822596839 0  8.000003666263144 1.999995079557962 0  9 2 0  -9.000000000004983 4 0  -8.000004090931247 3.999988758183693 0  -7.000007213045371 3.999979063080454 0  -6.000008812724869 3.999972438287004 0  -5.000009044158099 3.99997035335453 0  -3.999998588032696 3.999971590980542 0  -2.999991503064471 3.999980389317891 0  -1.999989576230085 3.999991960174504 0  -0.9999921322429647 4.00000123295368 0  2.876038346562014e-06 4.00000479157699 0  0.9999978404511032 4.000001337716585 0  1.999995171015958 3.99999252618655 0  2.999997304178768 3.999980536541494 0  4.000004998362008 3.999968113420858 0  5.000016404583444 3.999962695066121 0  6.000014435625387 3.999967919662416 0  7.000011123646862 3.999976411369342 0  8.000006116923441 3.999987505379445 0  9 4 0  -9 6 0  -8.000009353721179 5.999975821986188 0  -7.000014780411116 5.999954264668698 0  -6.000013266392689 5.999938039522883 0  -5.000003910379867 5.999929789986479 0  -3.999983303753955 5.999942608771485 0  -2.999973744445365 5.999970077073055 0  -1.999976981336254 5.999999035791328 0  -0.9999858131345931 6.000015295081522 0  5.029697328220622e-06 6.000018421877357 0  0.9999966565590022 6.000012598211383 0  1.999990306539092 5.999996802085168 0  2.999988224572377 5.999970181796859 0  3.999993827920075 5.99994226393441 0  5.000012632105793 5.999927563183876 0  6.000021599533986 5.999934897347449 0  7.000021389662877 5.999951591649973 0  8.000013008067425 5.999974329458462 0  9 6 0  -9 8 0  -8.000030323098102 7.999952405804102 0  -7.000050109555129 7.999908140619999 0  -6.000049087343962 7.999871741396532 0  -5.000018305394043 7.99985070975701 0  -3.999978831038602 7.999911009991505 0  -2.999984707952311 7.999982290342088 0  -1.99999834812518 8.000017782400411 0  -0.9999990912485985 8.000022783607601 0  9.798884185380633e-06 8.000024378426449 0  1.000016204413584 8.000027896412218 0  2.000013084717255 8.000011652515447 0  2.999995209763984 7.999984044937885 0  3.999989407298977 7.999917454004422 0  5.000030469111925 7.99984259459008 0  6.000065470367981 7.999864439098224 0  7.000064339801875 7.999902601534294 0  8.000038402627615 7.9999494254124 0  9 8 0  -9 10 0  -8.000093425263694 9.999915684791905 0  -7.000168657695594 9.999830570116945 0  -6.000203932265851 9.999744001702707 0  -5.000168852901967 9.99965565988046 0  -4.000106959769928 9.999848561477757 0  -3.000114533488101 10.00001521854651 0  -2.000088185281632 9.999989641731929 0  -1.000033671910717 9.99998146713588 0  7.364827636641612e-06 9.999979468239115 0  1.000048581236944 9.99997931540817 0  2.000103987476117 9.999977084229696 0  3.000152054736869 10.00003919895525 0  4.000145786597699 9.999866857770392 0  5.000221504272894 9.999640352911635 0  6.000253835096862 9.999728735470512 0  7.000206494913339 9.999818980566729 0  8.000113644668867 9.999909528112072 0  9 10 0  -9 12 0  -8.000229235770858 11.99988218515256 0  -7.000446934180505 11.99975885409045 0  -6.000639993530838 11.99962342431298 0  -5.000792112784113 11.99946674569907 0  -4.000760427898606 11.99981537258751 0  -3.00078600457709 12.00016032187031 0  -2.000518968379119 12.00012235878522 0  -1.000225770817062 12.00010364816 0  7.640959852122211e-05 12.00010338675408 0  1.000379616660638 12.00012259837917 0  2.000676583932381 12.00016598787093 0  3.00095260340104 12.00024502621893 0  4.00091994855623 11.99983125892234 0  5.000943917132729 11.99941396266301 0  6.00076071599088 11.99958564357582 0  7.000530605454354 11.99973418792664 0  8.000272011938875 11.99986995719749 0  9 12 0  -9 14 0  -8.000411067266951 13.99987077651662 0  -7.000823561021923 13.99973557816231 0  -6.001239462636892 13.99958790830126 0  -5.00166223724305 13.99942025037949 0  -4.00166623126179 13.99982334189769 0  -3.001665829333807 14.00023137278023 0  -2.001054641063837 14.00017811495652 0  -1.000453894546112 14.00015207582819 0  0.0001414071196602803 14.00014945605652 0  1.000735843881491 14.0001692248258 0  2.00133338799843 14.0002123775523 0  3.001936754279392 14.00028117692706 0  4.001940733473925 13.99981442636412 0  5.001946455289837 13.99935019170093 0  6.001454862619465 13.9995352206106 0  7.000968428566737 13.99970056955799 0  8.000483914955412 13.99985333306231 0  9 14 0  -9 16 0  -8.000587019421499 15.99988328437519 0  -7.001186269808317 15.9997622246655 0  -6.001810976826514 15.99963239957953 0  -5.002476442941743 15.99948931015512 0  -4.002500322020164 15.99982624225199 0  -3.002474865003737 16.00016104241067 0  -2.001549010787695 16.00012514428328 0  -1.000660427424179 16.00010694671325 0  0.0002099017722017536 16.00010608233011 0  1.00107990367278 16.00012242721615 0  2.001967425857539 16.00015629446112 0  3.002891368488021 16.0002083435525 0  4.002917689262678 15.99980169684633 0  5.002896547387519 15.99939446442109 0  6.002127742300318 15.99956360370417 0  7.001398183345445 15.99971735351215 0  8.000693190102545 15.99986112759819 0  9 16 0  -9 18 0  -8.000713867801947 17.99991317272417 0  -7.0014468240201 17.99982394996486 0  -6.002218925458943 17.99972997764731 0  -5.003052177850883 17.99962900129223 0  -4.003088525486294 17.99982508007544 0  -3.00305098118733 18.00002059928536 0  -2.001894901293295 18.00000149711167 0  -1.000794212967508 17.99999261529259 0  0.0002797228548871817 17.99999400181371 0  1.001354184125343 18.00000566925276 0  2.002456412889581 18.00002760959413 0  3.003614933567694 18.00005974162046 0  4.003653948078835 17.99979174943894 0  5.003618251359735 17.99952416868918 0  6.00264290765659 17.99965360165696 0  7.001729212411537 17.99977407590564 0  8.000854984155861 17.9998885426865 0  9 18 0  -9 20 0  -8.000764195046752 19.99995264020411 0  -7.001550461993134 19.99990467836732 0  -6.002381714469548 19.99985558273095 0  -5.003282554738886 19.99980496359272 0  -4.003324053933847 19.99982268785536 0  -3.003280892188603 19.99983984852177 0  -2.002019918956416 19.99983706149491 0  -1.000821306388819 19.99983730745157 0  0.0003474524743746753 19.99984089535154 0  1.001517734643866 19.999847915573 0  2.002720937787432 19.99985824855132 0  3.003989639808481 19.99987154538534 0  4.004034246151796 19.99978610012359 0  5.003991408637701 19.9997008907728 0  6.00291072285369 19.99977945192509 0  7.001901902465392 19.99985483753238 0  8.00093955026326 19.99992799291665 0  8.999999999970841 19.99999999999801 0  -9 22 0  -8.000726077435248 21.99999451339525 0  -7.001473820271212 21.99998994281094 0  -6.002265583525294 21.99998728510885 0  -5.003125098047088 21.99998770062123 0  -4.003165525471113 21.99981875186325 0  -3.003123406418436 21.99964924200222 0  -2.00189620860593 21.99966052485395 0  -1.000729313631466 21.99966866661471 0  0.0004091052753218013 21.99967409542051 0  1.00154996421452 21.99967694526442 0  2.002724220950124 21.99967706217326 0  3.003963829688125 21.99967399920995 0  4.004007484449689 21.99978354956079 0  5.003963929722348 21.99989317933267 0  6.002890349272628 21.99991800179502 0  7.001888278249835 21.99994451553109 0  8.000932694531953 21.999972027713 0  9 22 0  -9 24 0  -8.000601131202252 24.00003272415381 0  -7.001220744131725 24.00006755835725 0  -6.001877859091798 24.0001066976361 0  -5.002592527365871 24.00015250957096 0  -4.002626928405919 23.99981356641285 0  -3.002591104833856 23.99947412500233 0  -2.001531991723593 23.99949652287734 0  -1.000523737114003 23.99951085060491 0  0.0004610245755712465 23.99951758517455 0  1.001448980076548 23.99951687971641 0  2.002466867838724 23.99950856559294 0  3.003542210623169 23.9994921504961 0  4.003579622364521 23.9997835721768 0  5.003540711002702 24.00007498745671 0  6.002583247769164 24.00004977883922 0  7.001688292047432 24.00003019346266 0  8.000834093640083 24.00001421582889 0  9 24 0  -9 26 0  -8.00040204659736 26.00006249996398 0  -7.000817290825601 26.00012795926699 0  -6.00125929481292 26.00019942484579 0  -5.00174231611016 26.00028012146112 0  -4.001766922391271 25.99980749180799 0  -3.001741397144547 25.99933444236486 0  -2.00096502709484 25.99936473392563 0  -1.000224499421729 25.9993833412573 0  0.0005002015220312355 25.99939076950121 0  1.001228647330547 25.99938718284119 0  2.001980465092847 25.99937240540534 0  3.002775841420813 25.99934592040353 0  4.002802979900671 25.99978560756174 0  5.00277284496254 26.00022520360387 0  6.002025444375222 26.00015905764567 0  7.001324870618887 26.00010143797424 0  8.000654884332484 26.00004935616312 0  9 26 0  -9 28 0  -8.000149938842254 28.00008044417963 0  -7.000306377132928 28.00016434131264 0  -6.000476006189673 28.00025523411902 0  -5.000665857383946 28.00035684560094 0  -4.00067813327933 27.99980099066808 0  -3.000665589619767 27.99924481802625 0  -2.000255372084786 27.99927960985442 0  -0.9998622636942989 27.99930047666331 0  0.0005244303743883973 27.99930794206578 0  1.000915197917469 27.9993021774997 0  2.001320584697921 27.99928300273612 0  3.001751459953134 27.99924988535236 0  4.001765609505096 27.99978916716909 0  5.001747177603262 28.00032829565123 0  6.001279657887815 28.00023423002287 0  7.000838678287167 28.00015053257139 0  8.0004150
[...]
<PointData  Vectors="f_44-0"> 
<DataArray  type="Float64"  Name="f_44-0"  NumberOfComponents="3" format="ascii">0.0000000000000000e+00 0.0000000000000000e+00 0.0000000000000000e+00  6.0635722544401359e-07 -1.2398137573799220e+01 0.0000000000000000e+00  5.5542502652574398e-07 -1.2845814961789452e+01 0.0000000000000000e+00  6.7667870049362639e-07 -1.2258720279682036e+01 0.0000000000000000e+00  0.0000000000000000e+00 0.0000000000000000e+00 0.0000000000000000e+00  0.0000000000000000e+00 0.0000000000000000e+00 0.0000000000000000e+00  0.0000000000000000e+00 0.0000000000000000e+00 0.0000000000000000e+00  0.0000000000000000e+00 0.0000000000000000e+00 0.0000000000000000e+00  0.0000000000000000e+00 0.0000000000000000e+00 0.0000000000000000e+00  0.0000000000000000e+00 0.0000000000000000e+00 0.0000000000000000e+00  0.0000000000000000e+00 0.0000000000000000e+00 0.0000000000000000e+00  0.0000000000000000e+00 0.0000000000000000e+00 0.0000000000000000e+00  0.0000000000000000e+00 0.0000000000000000e+00 0.0000000000000000e+00  0.0000000000000000e+00 0.0000000000000000e+00 0.0000000000000000e+00  0.0000000000000000e+00 0.0000000000000000e+00 0.0000000000000000e+00  6.1739799754684505e-07 -1.2395289988959226e+01 0.0000000000000000e+00  5.6045525150727931e-07 -1.2844854623635825e+01 0.0000000000000000e+00  6.8164798999354104e-07 -1.2258515829938737e+01 0.0000000000000000e+00  0.0000000000000000e+00 0.0000000000000000e+00 0.0000000000000000e+00  0.0000000000000000e+00 0.0000000000000000e+00 0.0000000000000000e+00  -5.4018848312812076e-02 -1.2324802467542572e+01 0.0000000000000000e+00  -1.9462707940619217e-02 -1.2859765683468197e+01 0.0000000000000000e+00  -1.1726676899520838e-02 -1.2314573811923845e+01 0.0000000000000000e+00  1.1895596562464792e-03 1.8761901759843002e-04 0.0000000000000000e+00  1.0388564946529108e-03 -1.0562556818196382e-04 0.0000000000000000e+00  5.2342810349820766e-04 -3.2846078900176388e-05 0.0000000000000000e+00  3.3092305119866180e-04 1.5154773427546330e-04 0.0000000000000000e+00  2.0013193180160155e-04 2.2866105998792021e-04 0.0000000000000000e+00  1.4403613046879918e-04 1.5227650279532059e-04 0.0000000000000000e+00  8.4840663308158570e-05 -3.6312211140533557e-06 0.0000000000000000e+00  -6.3498009664927306e-07 -1.6820640560540157e-04 0.0000000000000000e+00  -2.0925927025772765e-04 -4.4086181655949994e-04 0.0000000000000000e+00  -5.7289536633223735e-04 -4.6281952101503629e-04 0.0000000000000000e+00  -1.1382872540724373e-03 -1.0387491889850477e-03 0.0000000000000000e+00  -5.5649997787421135e-02 -1.2325593623424110e+01 0.0000000000000000e+00  -2.0470976549619511e-02 -1.2861168099595336e+01 0.0000000000000000e+00  -1.3391980899082842e-02 -1.2315709002631639e+01 0.0000000000000000e+00  0.0000000000000000e+00 0.0000000000000000e+00 0.0000000000000000e+00  0.0000000000000000e+00 0.0000000000000000e+00 0.0000000000000000e+00  -1.4876925032166312e-02 -1.2318818601486830e+01 0.0000000000000000e+00  -3.5053748268471720e-02 -1.2851021925624336e+01 0.0000000000000000e+00  -2.0501724462002650e-02 -1.2317503190234335e+01 0.0000000000000000e+00  -1.8110829753011551e-04 6.7125246165548088e-05 0.0000000000000000e+00  3.0718861553594491e-05 8.4681188483097948e-04 0.0000000000000000e+00  -6.2411119780219213e-05 1.2436644420798038e-03 0.0000000000000000e+00  -1.5328940564197737e-04 9.3879237294572143e-04 0.0000000000000000e+00  -2.5066457993724617e-04 2.6166207660557276e-04 0.0000000000000000e+00  -1.6480100128204777e-04 -2.2670954548133381e-04 0.0000000000000000e+00  3.8661054421774455e-05 -1.9973264313511807e-04 0.0000000000000000e+00  4.2867523656228560e-04 -2.2534731633102096e-04 0.0000000000000000e+00  4.3723053736849214e-04 -1.9711100085109996e-04 0.0000000000000000e+00  1.0282322528849583e-04 4.3799147368641761e-04 0.0000000000000000e+00  -3.5346079758663356e-04 9.9323899957408411e-04 0.0000000000000000e+00  -1.5941257876417828e-02 -1.2315388947030554e+01 0.0000000000000000e+00  -3.5952459540950346e-02 -1.2846035905562568e+01 0.0000000000000000e+00  -2.2157059802524626e-02 -1.2311930508941042e+01 0.0000000000000000e+00  0.0000000000000000e+00 0.0000000000000000e+00 0.0000000000000000e+00  0.0000000000000000e+00 0.0000000000000000e+00 0.0000000000000000e+00  -2.3810765129555150e-04 -1.2313000611404179e+01 0.0000000000000000e+00  -9.6075961623427568e-03 -1.2831368592118650e+01 0.0000000000000000e+00  -1.2788553333951546e-02 -1.2294436510626173e+01 0.0000000000000000e+00  -9.3614712058870018e-04 2.8057492134196142e-03 0.0000000000000000e+00  -9.4905820233861171e-04 3.5038578195155643e-03 0.0000000000000000e+00  -1.1781619456015314e-03 2.3563237985644099e-03 0.0000000000000000e+00  -1.4409281345026570e-03 -3.2152206689937761e-04 0.0000000000000000e+00  -7.8665397249840885e-04 -1.6345721259862407e-03 0.0000000000000000e+00  2.0044263719967339e-05 -1.1537518209112218e-03 0.0000000000000000e+00  6.8812108834330921e-04 -6.9152927234653245e-04 0.0000000000000000e+00  7.8959277834171203e-04 -1.9925534347210161e-04 0.0000000000000000e+00  1.0969021250790273e-03 6.9179863493681578e-04 0.0000000000000000e+00  1.2626437768954247e-03 4.4236743084246781e-04 0.0000000000000000e+00  1.0745520270557851e-04 -2.6516004533979964e-04 0.0000000000000000e+00  -1.2431469676022315e-03 -1.2309987447300529e+01 0.0000000000000000e+00  -1.5512800803670276e-02 -1.2834475976994229e+01 0.0000000000000000e+00  -2.0425400216467292e-02 -1.2303679880955142e+01 0.0000000000000000e+00  0.0000000000000000e+00 0.0000000000000000e+00 0.0000000000000000e+00  0.0000000000000000e+00 0.0000000000000000e+00 0.0000000000000000e+00  2.8663654376276716e-03 -1.2320441127487303e+01 0.0000000000000000e+00  -7.6801322321251250e-04 -1.2841691650002057e+01 0.0000000000000000e+00  -8.6987724027545437e-03 -1.2312852493929784e+01 0.0000000000000000e+00  -4.0827052646037112e-03 3.5144991158362351e-03 0.0000000000000000e+00  -5.9164177412974793e-03 3.6082028389974479e-03 0.0000000000000000e+00  -2.1290514124619295e-03 -1.6044483351339070e-03 0.0000000000000000e+00  -1.5017426171489083e-03 -4.5841861031381600e-03 0.0000000000000000e+00  5.0159000632944109e-04 -2.9479833638943842e-03 0.0000000000000000e+00  8.9170966455835103e-04 -2.6975010701313540e-03 0.0000000000000000e+00  1.9180239275385358e-03 -4.8256458032825949e-03 0.0000000000000000e+00  1.8495967575903193e-03 -1.1039068133511763e-03 0.0000000000000000e+00  7.7296310073390528e-03 -2.2343352353271975e-03 0.0000000000000000e+00  8.5020029317612027e-03 -4.2839066060786687e-03 0.0000000000000000e+00  4.3923040019722319e-03 -1.7498943558840365e-03 0.0000000000000000e+00  -4.1405825809144315e-04 -1.2313167145700520e+01 0.0000000000000000e+00  -1.5598618759901043e-03 -1.2830826134384255e+01 0.0000000000000000e+00  -1.0356329603433113e-02 -1.2299864818314912e+01 0.0000000000000000e+00  0.0000000000000000e+00 0.0000000000000000e+00 0.0000000000000000e+00  0.0000000000000000e+00 0.0000000000000000e+00 0.0000000000000000e+00  3.9308134516843661e-03 -1.2320470313691308e+01 0.0000000000000000e+00  6.0894156377922486e-03 -1.2835423797654141e+01 0.0000000000000000e+00  6.4840452953585682e-03 -1.2296134824636964e+01 0.0000000000000000e+00  -1.5207753750949102e-02 1.7692586563327013e-02 0.0000000000000000e+00  -1.2465113867442616e-02 9.4598982550211669e-03 0.0000000000000000e+00  -4.9878854888100021e-03 2.3920741915329623e-03 0.0000000000000000e+00  3.4104131988128058e-03 -7.0284997538801377e-03 0.0000000000000000e+00  2.0084029154525986e-03 -2.4583708931482928e-03 0.0000000000000000e+00  2.0796615849649667e-03 -1.6251380396626700e-03 0.0000000000000000e+00  2.0876540429376144e-03 -1.8413389412076915e-03 0.0000000000000000e+00  2.7573193651513582e-04 -2.0782283843511335e-03 0.0000000000000000e+00  1.1316598733639570e-02 -5.5715989768330525e-03 0.0000000000000000e+00  1.4882939016731761e-02 -4.6441426840742091e-03 0.0000000000000000e+00  1.3408020452577454e-02 5.0101869651933278e-05 0.0000000000000000e+00  -2.1358147573618796e-03 -1.2305670968763312e+01 0.0000000000000000e+00  -1.9942603607787384e-03 -1.2828050010385622e+01 0.0000000000000000e+00  -4.2528836851402586e-03 -1.2300347296376591e+01 0.0000000000000000e+00  0.0000000000000000e+00 0.0000000000000000e+00 0.0000000000000000e+00  0.0000000000000000e+00 0.0000000000000000e+00 0.0000000000000000e+00  7.5539432823449526e-03 -1.2328857298969984e+01 0.0000000000000000e+00  1.6257925538651751e-02 -1.2841721202362313e+01 0.0000000000000000e+00  2.1086484433539533e-02 -1.2303323125807223e+01 0.0000000000000000e+00  1.3540959994820160e-02 2.0300584101935432e-02 0.0000000000000000e+00  8.9482532900758260e-03 1.1015239990706532e-02 0.0000000000000000e+00  4.5953392268054298e-03 6.3970279586596322e-03 0.0000000000000000e+00  5.2882065308780036e-04 -1.0981660253813969e-03 0.0000000000000000e+00  -2.0161171050086610e-04 1.2635774862824404e-03 0.0000000000000000e+00  -1.1345184813998119e-03 3.8649616699990793e-03 0.0000000000000000e+00  -3.6854285950438416e-03 1.2890286465935450e-03 0.0000000000000000e+00  -1.2450287385175691e-02 -8.3726424609125889e-03 0.0000000000000000e+00  -1.6769502208940627e-02 -1.3411507596640896e-02 0.0000000000000000e+00  -1.0576381660997043e-02 -1.0920149279253872e-03 0.0000000000000000e+00  -6.7728929684928987e-03 1.4105042588294411e-02 0.0000000000000000e+00  -6.7879924097025840e-03 -1.2308969126316311e+01 0.0000000000000000e+00  -8.0010164801113878e-03 -1.2838247308340776e+01 0.0000000000000000e+00  -4.4766403375662775e-03 -1.2310909856053277e+01 0.0000000000000000e+00  0.0000000000000000e+00 0.0000000000000000e+00 0.0000000000000000e+00  0.0000000000000000e+00 0.0000000000000000e+00 0.0000000000000000e+00  1.2472612691130541e-02 -1.2349849065616679e+01 0.0000000000000000e+00  2.8276874491805836e-02 -1.2861474190392451e+01 0.0000000000000000e+00  3.9523766336608777e-02 -1.2324289085967306e+01 0.0000000000000000e+00  5.1083209023831837e-02 1.6799224579012183e-02 0.0000000000000000e+00  4.8892839850085384e-02 4.0876524565653391e-03 0.0000000000000000e+00  4.7693391075879089e-02 -1.1697222022442406e-02 0.0000000000000000e+00  4.0645563429981837e-02 1.6154979406893987e-02 0.0000000000000000e+00  1.9474920590858525e-02 2.2570696146521831e-02 0.0000000000000000e+00  1.2417893533786723e-03 2.5546604904564559e-02 0.0000000000000000e+00  -1.5176016615343055e-02 2.4046548345082960e-02 0.0000000000000000e+00  -3.0661497989910112e-02 1.9050899879350804e-02 0.0000000000000000e+00  -5.1132248973439140e-02 -7.9985421023763253e-03 0.0000000000000000e+00  -4.8881401909768640e-02 4.8609503670644328e-03 0.0000000000000000e+00  -4.7639144399181939e-02 1.6431319925270988e-02 0.0000000000000000e+00  -3.2126713603757302e-02 -1.2336033971563644e+01 0.0000000000000000e+00  -1.4179011962307071e-02 -1.2862219038166172e+01 0.0000000000000000e+00  -7.3537159069777570e-03 -1.2336178462276733e+01 0.0000000000000000e+00  0.0000000000000000e+00 0.0000000000000000e+00 0.0000000000000000e+00  0.0000000000000000e+00 0.0000000000000000e+00 0.0000000000000000e+00  1.7360739752251313e-02 -1.2384375504335733e+01 0.0000000000000000e+00  3.9652050737083583e-02 -1.2895514846152329e+01 0.0000000000000000e+00  5.6807605676682763e-02 -1.2361955111485972e+01 0.0000000000000000e+00  8.2028431464272730e-02 1.0558213074375404e-02 0.0000000000000000e+00  8.0935255484088406e-02 -2.3910311812396369e-04 0.0000000000000000e+00  7.8557083365865352e-02 -1.0759465089660006e-02 0.0000000000000000e+00  5.4426901550161687e-02 6.7288490908213303e-02 0.0000000000000000e+00  2.6776336320912635e-02 6.6216843517190760e-02 0.0000000000000000e+00  1.3437039683990115e-03 6.7150222746354821e-02 0.0000000000000000e+00  -2.3454856683074593e-02 6.5855200854923371e-02 0.0000000000000000e+00  -5.1976568585847607e-02 6.2996107047114072e-02 0.0000000000000000e+00  -8.3052234968119143e-02 -1.8679499876335837e-03 0.0000000000000000e+00  -8.2054245719738225e-02 8.5392346258757156e-03 0.0000000000000000e+00  -7.9595055313990415e-02 1.9710507188884719e-02 0.0000000000000000e+00  -5.6515750965205225e-02 -1.2380246639700912e+01 0.0000000000000000e+00  -2.6141442094670057e-02 -1.2900911129744681e+01 0.0000000000000000e+00  -9.9774323551776317e-03 -1.2374602164494295e+01 0.0000000000000000e+00  0.0000000000000000e+00 0.0000000000000000e+00 0.0000000000000000e+00  0.0000000000000000e+00 0.0000000000000000e+00 0.0000000000000000e+00  2.0983416426003553e-02 -1.2429621962180256e+01 0.0000000000000000e+00  4.7809234794307036e-02 -1.2940536582835307e+01 0.0000000000000000e+00  6.8671991089909026e-02 -1.2411557036250537e+01 0.0000000000000000e+00  1.0335275974105493e-01 4.1624864525356192e-03 0.0000000000000000e+00  1.0342136995150129e-01 -2.2622082147531457e-03 0.0000000000000000e+00  1.0178787739292285e-01 -9.0204760493685799e-03 0.0000000000000000e+00  6.7680038093774125e-02 1.2247947461596474e-01 0.0000000000000000e+00  3.2546193927720173e-02 1.2090837737677886e-01 0.0000000000000000e+00  8.6522012292697056e-04 1.2194330015197875e-01 0.0000000000000000e+00  -3.0487048702957008e-02 1.2165806519261425e-01 0.0000000000000000e+00  -6.6815955999177890e-02 1.2177652255534963e-01 0.0000000000000000e+00  -1.0459877407662090e-01 4.9462509528584641e-03 0.0000000000000000e+00  -1.0453118009546572e-01 1.1335555956773911e-02 0.0000000000000000e+00  -1.0270627591403561e-01 1.7984984029235849e-02 0.0000000000000000e+00  -7.4182861411299345e-02 -1.2434791117815099e+01 0.0000000000000000e+00  -3.7494567194280043e-02 -1.2948448987340944e+01 0.0000000000000000e+00  -1.3725766496201247e-02 -1.2421625232416423e+01 0.0000000000000000e+00  0.0000000000000000e+00 0.0000000000000000e+00 0.0000000000000000e+00  0.0000000000000000e+00 0.0000000000000000e+00 0.0000000000000000e+00  2.2615948916047023e-02 -1.2480636217263449e+01 0.0000000000000000e+00  5.1294699228181646e-02 -1.2991330415126951e+01 0.0000000000000000e+00  7.3201755643830357e-02 -1.2467151605014701e+01 0.0000000000000000e+00  1.1264854738971196e-01 -1.8314276976628004e-03 0.0000000000000000e+00  1.1354516356227046e-01 -3.1970460277220602e-03 0.0000000000000000e+00  1.1230959514022931e-01 -4.8265423200129194e-03 0.0000000000000000e+00  7.2311240311148994e-02 1.9071979253611721e-01 0.0000000000000000e+00  3.4660405346213771e-02 1.8513606141011360e-01 0.0000000000000000e+00  1.9961124387672284e-04 1.8515633400067516e-01 0.0000000000000000e+00  -3.3952154470464999e-02 1.8596944599157139e-01 0.0000000000000000e+00  -7.3910678761472670e-02 1.8999222034383473e-01 0.0000000000000000e+00  -1.1388585913674069e-01 1.1303717825928768e-02 0.0000000000000000e+00  -1.1467480556263233e-01 1.2486639197701257e-02 0.0000000000000000e+00  -1.1335677323653870e-01 1.3906776959308240e-02 0.0000000000000000e+00  -8.2419833383195473e-02 -1.2494179375866986e+01 0.0000000000000000e+00  -4.4621719606819217e-02 -1.3000819987326926e+01 0.0000000000000000e+00  -1.7155921274853055e-02 -1.2472780993031515e+01 0.0000000000000000e+00  -1.7696837840903023e-11 -2.3870919706967639e-10 0.0000000000000000e+00  0.0000000000000000e+00 0.0000000000000000e+00 0.0000000000000000e+00  2.1984143104903091e-02 -1.2531670256167915e+01 0.0000000000000000e+00  4.9610946332762203e-02 -1.3042136432051555e+01 0.0000000000000000e+00  6.9824842783192231e-02 -1.2522483733303501e+01 0.0000000000000000e+00  1.0913852320802458e-01 -6.9082172914824201e-03 0.0000000000000000e+00  1.1056645796342800e-01 -2.9780167138945103e-03 0.0000000000000000e+00  1.0989457717797420e-01 7.5333228272550718e-04 0.0000000000000000e+00  6.9184268997301138e-02 2.6030612380421575e-01 0.0000000000000000e+00  3.3112643953362247e-02 2.5104679621595555e-01 0.0000000000000000e+00  -3.2525182810547594e-04 2.5010803054671893e-01 0.0000000000000000e+00  -3.3530975141160400e-02 2.5201533032896151e-01 0.0000000000000000e+00  -7.2817308465811692e-02 2.6003320825753351e-01 0.0000000000000000e+00  -1.1028431995364048e-01 1.6607741152009924e-02 0.0000000000000000e+00  -1.1160665499371561e-01 1.2483706750943161e-02 0.0000000000000000e+00  -1.1083322934893891e-01 8.5762190188640140e-03 0.0000000000000000e+00  -8.0178221939509603e-02 -1.2551437809204444e+01 0.0000000000000000e+00  -4.5662777752840014e-02 -1.3052089961906638e+01 0.0000000000000000e+00  -1.8680426160772350e-02 -1.2523035442095157e+01 0.0000000000000000e+00  0.0000000000000000e+00 0.0000000000000000e+00 0.0000000000000000e+00  0.0000000000000000e+00 0.0000000000000000e+00 0.0000000000000000e+00  1.9153871623512762e-02 -1.2577019392657093e+01 0.0000000000000000e+00  4.2983735494289167e-02 -1.3087305643952822e+01 0.0000000000000000e+00  5.9011762876428904e-02 -1.2571451255244789e+01 0.0000000000000000e+00  9.3574326835323365e-02 -1.0581921695101377e-02 0.0000000000000000e+00  9.5296281250529774e-02 -1.8296069945025384e-03 0.0000000000000000e+00  9.5198999584149055e-02 6.7703008853989780e-03 0.0000000000000000e+00  5.8552193731655613e-02 3.2438446109898644e-01 0.0000000000000000e+00  2.8110977806574858e-02 3.1167399656036238e-01 0.0000000000000000e+00  -7.2026840299710935e-04 3.0974414747256418e-01 0.0000000000000000e+00  -2.9343474061693100e-02 3.1255189513545834e-01 0.0000000000000000e+00  -6.3749980626244013e-02 3.2431402945257748e-01 0.0000000000000000e+00  -9.4581375925433947e-02 2.0444386057119249e-02 0.0000000000000000e+00  -9.6188307575580334e-02 1.1514869737686289e-02 0.0000000000000000e+00  -9.5997625555702293e-02 2.7482819609052334e-03 0.0000000000000000e+00  -6.8282199003921962e-02 -1.2600456226274012e+01 0.0000000000000000e+00  -4.0403440222623641e-02 -1.3096497231364982e+01 0.0000000000000000e+00  -1.7562631368146370e-02 -1.2566950124488988e+01 0.0000000000000000e+00  0.0000000000000000e+00 0.0000000000000000e+00 0.0000000000000000e+00  0.0000000000000000e+00 0.0000000000000000e+00 0.0000000000000000e+00  1.4458294215662495e-02 -1.2611696901547679e+01 0.0000000000000000e+00  3.2213027972549241e-02 -1.3121911189947379e+01 0.0000000000000000e+00  4.2082094916198735e-02 -1.2608755164871461e+01 0.0000000000000000e+00  6.7918449136267628e-02 -1.2551107767294178e-02 0.0000000000000000e+00  6.9714647585410183e-02 2.4779094900666441e-05 0.0000000000000000e+00  7.0178157012662987e-02 1.2499020644548713e-02 0.0000000000000000e+00  4.1641519983480736e-02 3.7589813673788891e-01 0.0000000000000000e+00  2.0161911373829427e-02 3.6045328127576204e-01 0.0000000000000000e+00  -9.8645789207756052e-04 3.5763914532419894e-01 0.0000000000000000e+00  -2.1929590754633771e-02 3.6108528390517525e-01 0.0000000000000000e+00  -4.7895581455649379e-02 3.7595002541185008e-01 0.0000000000000000e+00  -6.8779935787342483e-02 2.2521286228443561e-02 0.0000000000000000e+00  -7.0452884712188205e-02 9.8052321510626733e-03 0.0000000000000000e+00  -7.0823264416900067e-02 -2.7965475167962797e-03 0.0000000000000000e+00  -4.8507160234702099e-02 -1.2636112263140379e+01 0.0000000000000000e+00  -2.9701872646795038e-02 -1.3129282182375086e+01 0.0000000000000000e+00  -1.3817175745453348e-02 -1.2599744227382519e+01 0.0000000000000000e+00  0.0000000000000000e+00 0.0000000000000000e+00 0.0000000000000000e+00  0.0000000000000000e+00 0.0000000000000000e+00 0.0000000000000000e+00  8.4295608280122569e-03 -1.2631966828438886e+01 0.0000000000000000e+00  1.8520188730221297e-02 -1.3142255641069996e+01 0.0000000000000000e+00  2.0968499478565987e-02 -1.2630438231258042e+01 0.0000000000000000e+00  3.5043392518575862e-02 -1.2669644984119365e-02 0.0000000000000000e+00  3.6722785078782294e-02 2.3557079086578589e-03 0.0000000000000000e+00  3.7693521045144493e-02 1.7329897766566175e-02 0.0000000000000000e+00  2.0281303038175432e-02 4.0929465602977139e-01 0.0000000000000000e+00  1.0108944268615494e-02 3.9214138359484846e-01 0.0000000000000000e+00  -1.1343912875763087e-03 3.8866219862575663e-01 0.0000000000000000e+00  -1.2155917705365600e-02 3.9242931832936767e-01 0.0000000000000000e+00  -2.7065617983597034e-02 4.0943227792054399e-01 0.0000000000000000e+00  -3.5783836131624572e-02 2.2698368271868233e-02 0.0000000000000000e+00  -3.7335526019890868e-02 7.5878012531105272e-03 0.0000000000000000e+00  -3.8215408528574253e-02