<?xml version="1.0"?>
<VTKFile type="UnstructuredGrid"  version="0.1"  >
<UnstructuredGrid>
<Piece  NumberOfPoints="589" NumberOfCells="1080">
<Points>
<DataArray  type="Float64"  NumberOfComponents="3"  format="ascii">-9 0 0  -8 0 0  -7 0 0  -6 0 0  -5 0 0  -4 0 0  -3 0 0  -2 0 0  -1 0 0  0 0 0  1 0 0  2 0 0  3 0 0  4 0 0  5 0 0  6 0 0  7 0 0  8 0 0  9 0 0  -9 2 0  -8.000007293957456 1.99998917119784 0  -7.000015297343094 1.99997966467811 0  -6.000025672905346 1.999972552695735 0  -5.00004221736044 1.999968301280202 0  -4.000025166056062 1.99997636087423 0  -3.000007611700763 1.999983933591375 0  -1.999999002204299 1.999991010849648 0  -0.9999974623915736 1.999996604828992 0  -3.407219650130354e-07 1.99999906868636 0  0.999996450155857 1.99999740276373 0  1.999996873803145 1.999992020365456 0  3.000003590211379 1.999985424395104 0  4.000017413896927 1.999978394723061 0  5.000037389610743 1.999975623859589 0  6.000022522035447 1.999976611441344 0  7.000013378406827 1.999981947988403 0  8.000006384645754 1.999990225106094 0  9 2 0  -9 4 0  -8.000011750041363 3.999973053931881 0  -7.00002110600523 3.999949751704504 0  -6.000026670158625 3.999933663394329 0  -5.000028734541913 3.999928195031213 0  -4.00000399708949 3.999931969120242 0  -2.999987349626892 3.99995320199089 0  -1.999982880535659 3.999980820914101 0  -0.9999889797861268 4.000003037042596 0  -8.380024237280813e-07 4.00001202361931 0  0.9999870389777356 4.000005120813903 0  1.999980042857289 3.999986379751034 0  2.99998356279545 3.999961013873111 0  3.999999230613117 3.999935563289696 0  5.000023102599116 3.999927226072075 0  6.000022148134366 3.999935827451013 0  7.000018157170365 3.999952134396185 0  8.000010332556693 3.999974459836386 0  9 4 0  -9 6 0  -8.000025781600332 5.999942364547697 0  -7.000042081846805 5.999890986059172 0  -6.000041666515604 5.999852297181158 0  -5.000022462302961 5.999832464448053 0  -3.999974333227914 5.999863934227655 0  -2.999952381145224 5.999929570490797 0  -1.999960884402132 5.999998347318424 0  -0.9999822524187532 6.000036579199241 0  -3.856226921047413e-06 6.000044295630665 0  0.9999767630096416 6.000031989246152 0  1.99996204677428 5.999997901951766 0  2.999956612440081 5.999940317123958 0  3.999968033091428 5.999880656774223 0  5.000008954238782 5.999851248855625 0  6.000033920190764 5.999864223948062 0  7.00003826966675 5.999898249983416 0  8.000024310967216 5.999945838676092 0  9 6 0  -9 8 0  -8.000077729090808 7.999886662234059 0  -7.000129914336787 7.999781478017091 0  -6.000131815138658 7.999695522206555 0  -5.000062262671277 7.999647050150674 0  -3.999969264716666 7.999792083208955 0  -2.99998637090924 7.999962448235941 0  -2.000021218152563 8.000045422856161 0  -1.000024128691326 8.000054827952075 0  -3.28704707422984e-06 8.000057554772589 0  1.00001237217448 8.000065871013838 0  2.00000615924467 8.000031402642238 0  2.999966052267902 7.999972685895052 0  3.999952630494814 7.99982714930228 0  5.000043763568572 7.999662920255127 0  6.000128146770627 7.999708438644499 0  7.000131601819652 7.999790131730739 0  8.000079687273271 7.999890939673929 0  9 8 0  -9 10 0  -8.000231776671333 9.999798406389697 0  -7.000418804551047 9.99959515020703 0  -6.000507700091879 9.999388967054697 0  -5.000424104206494 9.999179539227407 0  -4.000276710284619 9.999647726699932 0  -3.000300804612387 10.0000502440778 0  -2.000240913613206 9.9999807611891 0  -1.000111317232419 9.999958465094611 0  -1.588996551670456e-05 9.999953027900016 0  1.000078714579308 9.999953465275684 0  2.000204513361258 9.999951020361751 0  3.000315472108281 10.00009527862171 0  4.000301891137379 9.999715087694272 0  5.000468733050398 9.999213409201259 0  6.000545925531744 9.999408078222622 0  7.000446311242363 9.999605623135325 0  8.000246088389796 9.999803074914626 0  9 10 0  -9 12 0  -8.000564470578263 11.99971693037115 0  -7.001099654690635 11.99942074880428 0  -6.001572449076643 11.99909577179528 0  -5.001941789336827 11.99872012530217 0  -4.001866513464056 11.99957375990668 0  -3.001934733893949 12.00041889029684 0  -2.00132974087287 12.000316322457 0  -1.000656791743903 12.00026062335014 0  4.193001096199714e-05 12.00024941801586 0  1.00074770694556 12.00028443547906 0  2.001444810367587 12.0003759270659 0  3.002102002894017 12.00054958786993 0  4.0020298737571 11.99963764879127 0  5.002077743066373 11.99871818362276 0  6.001670143160095 11.99909649847726 0  7.001163060565641 11.99942166168508 0  8.000595710414537 11.99971742512435 0  9 12 0  -9 14 0  -8.001013590242838 13.99968804858586 0  -7.002028911050828 13.99936178267826 0  -6.003049042879518 13.99900562466859 0  -5.004080532087024 13.99860152001057 0  -4.004091262887981 13.99959931562328 0  -3.004097511210135 14.00060975068847 0  -2.002691751169449 14.00046467898397 0  -1.001305954031046 14.00038504515876 0  7.169522898228823e-05 14.00036113559397 0  1.001452443986343 14.00038977859912 0  2.002846749260623 14.00047254363118 0  3.004262891094192 14.00061394021351 0  4.004274149384292 13.99960183463685 0  5.004280146264861 13.99859603759519 0  6.003190561166153 13.99899809130818 0  7.002119867276881 13.99935563762677 0  8.001058142061064 13.99968471478524 0  9 14 0  -9 16 0  -8.00145480508219 15.9997165222679 0  -7.002937305156295 15.99942259125965 0  -6.004477602770833 15.99910757427231 0  -5.006110702310177 15.99876064949011 0  -4.006168836661996 15.99961218635147 0  -3.006114150376483 16.00045921136765 0  -2.003976452106508 16.00035207241795 0  -1.001923640488717 16.00028720484644 0  8.910209979936111e-05 16.00026321599952 0  1.002104135028091 16.00027919749343 0  2.004163833996285 16.0003351965167 0  3.006313290015591 16.00043200099906 0  4.006374896006778 15.9995755025978 0  5.006321032322346 15.99871835343201 0  6.004632490710712 15.99907809815677 0  7.003039028021178 15.99940375933855 0  8.001505184611627 15.99970731374174 0  9 16 0  -9 18 0  -8.001784193727367 17.99978683449979 0  -7.003612659325118 17.9995678459359 0  -6.005531972204208 17.9993373198542 0  -5.007593291239288 17.99908978319361 0  -4.007681008972872 17.99961521800043 0  -3.0075966774923 18.00013997814485 0  -2.004924869813181 18.00007103190469 0  -1.002382574923906 18.00002652019671 0  9.728648111215064e-05 18.00000607781821 0  1.002578540673337 18.00000919406771 0  2.00512492371908 18.00003524743979 0  3.007803200355389 18.00008337932103 0  4.007892570212285 17.99955585022897 0  5.007807459130577 17.9990298835536 0  6.005690767739686 17.99929468496999 0  7.003717616681671 17.99954045936447 0  8.001836395594767 17.99977344021685 0  9 18 0  -9 20 0  -8.001935535345364 19.99988042271402 0  -7.00392272612445 19.99975927527781 0  -6.006015198318161 19.99963516291484 0  -5.008270518101509 19.99950703540504 0  -4.008370560249145 19.99961535451799 0  -3.008271959584701 19.99972292566972 0  -2.005358902200844 19.99969272780379 0  -1.00259351519043 19.9996700483456 0  9.982561695940879e-05 19.99965519428244 0  1.002794006082456 19.99964791488948 0  2.005561876425223 19.999647421266 0  3.008478960800784 19.99965233848782 0  4.008579495479774 19.99954608390772 0  5.00848029307123 19.99944089585669 0  6.006171454260195 19.99958744838983 0  7.004026374334248 19.99972836450722 0  8.001987200831604 19.99986523666964 0  8.999999999993157 19.9999999999934 0  -9 22 0  -8.001879368721601 21.99998027293726 0  -7.003809780793191 21.99996255963087 0  -6.005843877092159 21.99994906941122 0  -5.00803747991784 21.99994240658644 0  -4.008135399302835 21.99961148135024 0  -3.008038428874345 21.9992797189693 0  -2.005205965055957 21.99928450743963 0  -1.002518017393267 21.99928244714314 0  9.90002990346027e-05 21.99927418425767 0  1.002716447452348 21.99925965125392 0  2.005405660992579 21.99923808048234 0  3.008240161573835 21.99920799114778 0  4.008336750573496 21.99954295757744 0  5.008237924180261 21.99987852584398 0  6.005993808492899 21.99990274453951 0  7.003909528438238 21.99993242696013 0  8.001929175099679 21.99996543170435 0  9 22 0  -9 24 0  -8.001618118483799 24.0000720685034 0  -7.003280171974114 24.00014895019352 0  -6.005031325371024 24.00023565816298 0  -5.006919128348499 24.00033761769398 0  -4.007003559091818 23.99960385979582 0  -3.006920668042993 23.99886934550926 0  -2.004478564090595 23.99890353751875 0  -1.002160461428619 23.99891951976408 0  9.654283464846022e-05 23.9989181165975 0  1.00235366497111 23.99889938996952 0  2.004672105058061 23.99886264368713 0  3.007114719029312 23.99880641828877 0  4.007195370783271 23.99954473225234 0  5.007108770109417 24.00028338458295 0  6.005173659925303 24.00019616336647 0  7.003375095317105 24.000123182572 0  8.001665582779552 24.00005935371152 0  9 24 0  -9 26 0  -8.001180092939755 26.00014462968996 0  -7.002392117931421 26.00029604626463 0  -6.003668874643761 26.00046123826607 0  -5.005044734808046 26.00064761151827 0  -4.005107038845449 25.99959302800373 0  -3.005047592457481 25.99853785676143 0  -2.003258625220319 25.99859507708688 0  -1.00156008325852 25.99862580825751 0  9.376191101109395e-05 25.99863101254157 0  1.001747492629042 25.99861086770899 0  2.003445675463121 25.99856476795206 0  3.005233993127888 25.99849132153117 0  4.005289867364962 25.99954979842176 0  5.00522448211488 26.00060841726349 0  6.003804187713105 26.00043262019514 0  7.002482549795345 26.00027733780661 0  8.001225367842736 26.00013538634709 0  9 26 0  -9 28 0  -8.000613137476106 28.0001900645036 0  -7.001242945023928 28.00038805276539 0  -6.001906584170379 28.00060209245867 0  -5.002621973204315 28.00084072545889 0  -4.002656254611539 27.99958000911451 0  -3.002626402183945 27.99831898361203 0  -2.001680380793914 27.99839223150984 0  -1.000782455399729 27.99843385695065 0  9.159024236805458e-05 27.9984449503775 0  1.000965366099456 27.99842580158658 0  2.001862463553841 27.99837590159642 0  3.00280704380185 27.99829394149302 0  4.002832520144421 27.99955702076175 0  5.002794621551457 28.00082015704347 0  6.002036850105746 28.00058704224798 0  7.001330145556346 28.00037819783109 0  8.000656838797003 28.000
[...]
<PointData  Vectors="f_44-0"> 
<DataArray  type="Float64"  Name="f_44-0"  NumberOfComponents="3" format="ascii">0.0000000000000000e+00 0.0000000000000000e+00 0.0000000000000000e+00  1.1143477917930196e-07 -4.4991598998988893e+00 0.0000000000000000e+00  1.8830714226166849e-07 -4.4602091296538449e+00 0.0000000000000000e+00  3.9145636996901617e-07 -4.0588625143365089e+00 0.0000000000000000e+00  0.0000000000000000e+00 0.0000000000000000e+00 0.0000000000000000e+00  0.0000000000000000e+00 0.0000000000000000e+00 0.0000000000000000e+00  0.0000000000000000e+00 0.0000000000000000e+00 0.0000000000000000e+00  0.0000000000000000e+00 0.0000000000000000e+00 0.0000000000000000e+00  0.0000000000000000e+00 0.0000000000000000e+00 0.0000000000000000e+00  0.0000000000000000e+00 0.0000000000000000e+00 0.0000000000000000e+00  0.0000000000000000e+00 0.0000000000000000e+00 0.0000000000000000e+00  0.0000000000000000e+00 0.0000000000000000e+00 0.0000000000000000e+00  0.0000000000000000e+00 0.0000000000000000e+00 0.0000000000000000e+00  0.0000000000000000e+00 0.0000000000000000e+00 0.0000000000000000e+00  0.0000000000000000e+00 0.0000000000000000e+00 0.0000000000000000e+00  1.1476184444665954e-07 -4.5129246654648316e+00 0.0000000000000000e+00  1.9035346222505887e-07 -4.4730579163046142e+00 0.0000000000000000e+00  3.9282744610740706e-07 -4.0692377211129331e+00 0.0000000000000000e+00  0.0000000000000000e+00 0.0000000000000000e+00 0.0000000000000000e+00  0.0000000000000000e+00 0.0000000000000000e+00 0.0000000000000000e+00  -7.5019633687290815e-03 -4.2188475229276312e+00 0.0000000000000000e+00  3.6885071374801607e-03 -4.4567416059465339e+00 0.0000000000000000e+00  2.8475296079813223e-02 -4.2303352844438846e+00 0.0000000000000000e+00  1.5869969265056082e-03 -4.4945257929820238e-04 0.0000000000000000e+00  1.7226832208761689e-03 -9.9812070693304196e-04 0.0000000000000000e+00  9.4043763566832345e-04 -5.8133845906663186e-04 0.0000000000000000e+00  7.0495857117414725e-04 1.0726516599491438e-04 0.0000000000000000e+00  4.0283482899247528e-04 4.8075827911797880e-04 0.0000000000000000e+00  1.5409629759584496e-04 3.8882726876272400e-04 0.0000000000000000e+00  -1.0148962046317001e-04 -9.9308118514600682e-06 0.0000000000000000e+00  -2.9680461001331055e-04 -5.2673635477609119e-04 0.0000000000000000e+00  -5.8282312071106907e-04 -1.3123653392315693e-03 0.0000000000000000e+00  -9.9989067097019588e-04 -1.4932953411006809e-03 0.0000000000000000e+00  -1.7096341275393957e-03 -2.5603245705760986e-03 0.0000000000000000e+00  -7.7935447243034734e-03 -4.2309277484489201e+00 0.0000000000000000e+00  3.9202858410633031e-03 -4.4695291041559218e+00 0.0000000000000000e+00  2.8545144376211272e-02 -4.2427880692576254e+00 0.0000000000000000e+00  0.0000000000000000e+00 0.0000000000000000e+00 0.0000000000000000e+00  0.0000000000000000e+00 0.0000000000000000e+00 0.0000000000000000e+00  1.2778162935720639e-02 -4.2291846614686444e+00 0.0000000000000000e+00  -4.6805339245010015e-03 -4.4415386611011245e+00 0.0000000000000000e+00  1.2735418557020144e-02 -4.2321775341544088e+00 0.0000000000000000e+00  -1.4143722346583135e-03 -2.0270241203494653e-03 0.0000000000000000e+00  -1.1469994824328127e-04 8.0489892708418412e-05 0.0000000000000000e+00  1.7683257893631813e-04 1.7506262337023651e-03 0.0000000000000000e+00  7.9247469993753709e-05 1.8304825602538149e-03 0.0000000000000000e+00  -3.6787782369227396e-04 8.0339847199492728e-04 0.0000000000000000e+00  -5.2264147054751687e-04 -1.3276407523640863e-04 0.0000000000000000e+00  -3.8117602881387712e-04 -2.7446237209134038e-04 0.0000000000000000e+00  3.6205773840000449e-04 -8.6904973673452234e-04 0.0000000000000000e+00  4.9879717143531694e-04 -1.5276650062308592e-03 0.0000000000000000e+00  1.7058812845771820e-04 -7.7869012864548593e-04 0.0000000000000000e+00  -2.6282557258589233e-04 1.2426101415283715e-04 0.0000000000000000e+00  1.2907637387493502e-02 -4.2410428031455369e+00 0.0000000000000000e+00  -4.7594683482265693e-03 -4.4535546409672433e+00 0.0000000000000000e+00  1.2116940068821701e-02 -4.2441253330533524e+00 0.0000000000000000e+00  0.0000000000000000e+00 0.0000000000000000e+00 0.0000000000000000e+00  0.0000000000000000e+00 0.0000000000000000e+00 0.0000000000000000e+00  1.2470070690398303e-02 -4.2319141223768799e+00 0.0000000000000000e+00  -3.6729461679386342e-03 -4.4425749273750679e+00 0.0000000000000000e+00  1.2517424204240566e-02 -4.2304143723016088e+00 0.0000000000000000e+00  -3.1551475348013769e-03 2.0207972909272115e-03 0.0000000000000000e+00  -1.6320074011064738e-03 4.7925900150709829e-03 0.0000000000000000e+00  -1.5393871012719330e-03 3.9197810882520409e-03 0.0000000000000000e+00  -2.5265860779233088e-03 -7.8821077429499327e-04 0.0000000000000000e+00  -1.5625080887698187e-03 -2.9144663008197373e-03 0.0000000000000000e+00  -1.9272866375446697e-04 -1.5018279955674048e-03 0.0000000000000000e+00  8.6826891859954024e-04 -7.0070387868684659e-04 0.0000000000000000e+00  6.6712102931755187e-04 -4.7884630909065168e-04 0.0000000000000000e+00  1.2354434444105664e-03 -2.3513150949683705e-05 0.0000000000000000e+00  2.0045647628044545e-03 -2.4013968380217879e-03 0.0000000000000000e+00  4.6477929112558795e-04 -4.9313861049680371e-03 0.0000000000000000e+00  1.4679285578428139e-02 -4.2425366175320258e+00 0.0000000000000000e+00  -3.0128200731541358e-03 -4.4528976869078152e+00 0.0000000000000000e+00  1.1709047934291632e-02 -4.2410320621902997e+00 0.0000000000000000e+00  0.0000000000000000e+00 0.0000000000000000e+00 0.0000000000000000e+00  0.0000000000000000e+00 0.0000000000000000e+00 0.0000000000000000e+00  1.1756379260355557e-02 -4.2322652535864256e+00 0.0000000000000000e+00  -4.6113261251681066e-03 -4.4445617706451666e+00 0.0000000000000000e+00  1.0893273231163054e-02 -4.2365825452965522e+00 0.0000000000000000e+00  -1.2051268740174882e-02 -2.2474712248062184e-03 0.0000000000000000e+00  -1.4044326538224414e-02 2.8023146162501089e-03 0.0000000000000000e+00  -4.7838096464329011e-03 -5.1520192589743115e-03 0.0000000000000000e+00  -4.4729591632166835e-03 -1.0195961077992364e-02 0.0000000000000000e+00  5.3461394710443890e-04 -5.4973850617767855e-03 0.0000000000000000e+00  2.0788167581590007e-03 -4.6948686354226889e-03 0.0000000000000000e+00  4.9464840473380858e-03 -9.4520929506285312e-03 0.0000000000000000e+00  4.6586602527247147e-03 -1.6271786697091683e-03 0.0000000000000000e+00  1.7522938015183776e-02 -6.0064940640840734e-03 0.0000000000000000e+00  1.8904175147408477e-02 -1.5133443020742515e-02 0.0000000000000000e+00  1.1780955683882344e-02 -1.3931056536803328e-02 0.0000000000000000e+00  1.5827882231423767e-02 -4.2409379679613961e+00 0.0000000000000000e+00  -1.3395805699900063e-03 -4.4506322818295443e+00 0.0000000000000000e+00  1.2446510826611813e-02 -4.2382887188290805e+00 0.0000000000000000e+00  0.0000000000000000e+00 0.0000000000000000e+00 0.0000000000000000e+00  0.0000000000000000e+00 0.0000000000000000e+00 0.0000000000000000e+00  1.0262596972077936e-02 -4.2280781489303614e+00 0.0000000000000000e+00  -9.9082449041878462e-03 -4.4389365189252983e+00 0.0000000000000000e+00  -2.4341496867928314e-03 -4.2265250122155953e+00 0.0000000000000000e+00  -5.3482018458341232e-02 1.9699915635484865e-02 0.0000000000000000e+00  -4.1369316175744957e-02 1.3429534187575067e-02 0.0000000000000000e+00  -2.2366759342969882e-02 8.1743570004008583e-03 0.0000000000000000e+00  1.5629678761989810e-03 -1.8569036734611997e-02 0.0000000000000000e+00  1.7712377326565059e-03 -7.3317217440401934e-03 0.0000000000000000e+00  4.7973753679247753e-03 -5.2576502144552131e-03 0.0000000000000000e+00  7.4864400366500220e-03 -5.6188643597238404e-03 0.0000000000000000e+00  6.8462489514191233e-03 -6.2492661165487922e-03 0.0000000000000000e+00  3.5636131112743753e-02 -1.0202584316367180e-02 0.0000000000000000e+00  4.3574808011416076e-02 -1.8971008223159110e-02 0.0000000000000000e+00  4.5421031599507888e-02 -2.2691550351312116e-02 0.0000000000000000e+00  2.3250126943793900e-02 -4.2369232640868990e+00 0.0000000000000000e+00  4.7710969298552181e-04 -4.4462574757345825e+00 0.0000000000000000e+00  1.2880599596505754e-02 -4.2341157138591683e+00 0.0000000000000000e+00  0.0000000000000000e+00 0.0000000000000000e+00 0.0000000000000000e+00  0.0000000000000000e+00 0.0000000000000000e+00 0.0000000000000000e+00  1.0178527274781348e-02 -4.2218597358288310e+00 0.0000000000000000e+00  -9.9536369194154935e-03 -4.4323116035381194e+00 0.0000000000000000e+00  1.9406627863716862e-03 -4.2218776676705803e+00 0.0000000000000000e+00  -2.8484707507495502e-02 1.1938446192562074e-02 0.0000000000000000e+00  -3.7862885986812367e-02 1.5464964480525773e-02 0.0000000000000000e+00  -5.1459642213282294e-02 3.0797198844257950e-02 0.0000000000000000e+00  -1.9992502850424490e-02 -2.6149717005805456e-02 0.0000000000000000e+00  -6.9288364231531990e-03 -2.6274574366662869e-02 0.0000000000000000e+00  2.6082820927610891e-03 -2.4182919791380719e-02 0.0000000000000000e+00  9.2977678640104415e-03 -2.4307125034931300e-02 0.0000000000000000e+00  9.2968804677637986e-03 -2.6554064039424206e-02 0.0000000000000000e+00  2.0063213998277388e-02 -1.4884942315217638e-02 0.0000000000000000e+00  3.2866550251314311e-02 -1.2512316662893227e-02 0.0000000000000000e+00  4.3495363636043782e-02 -3.3506291452866871e-03 0.0000000000000000e+00  2.5487110406607706e-02 -4.2332020212799142e+00 0.0000000000000000e+00  -5.1426683430685839e-04 -4.4415000077146471e+00 0.0000000000000000e+00  1.2432340043438314e-02 -4.2292603256658605e+00 0.0000000000000000e+00  0.0000000000000000e+00 0.0000000000000000e+00 0.0000000000000000e+00  0.0000000000000000e+00 0.0000000000000000e+00 0.0000000000000000e+00  1.0414671750456822e-02 -4.2146425465384922e+00 0.0000000000000000e+00  -9.8670988109560761e-03 -4.4251709741515901e+00 0.0000000000000000e+00  2.1526175019928383e-03 -4.2145423423357480e+00 0.0000000000000000e+00  -4.9425727516522904e-04 -7.2411050408693856e-04 0.0000000000000000e+00  -6.4256812925131395e-03 -1.4290428283782433e-03 0.0000000000000000e+00  -9.6322628267679448e-03 -9.6935733252731821e-03 0.0000000000000000e+00  -5.9936593611934911e-03 -3.8115202703331914e-02 0.0000000000000000e+00  -1.8434067054567244e-03 -3.8246309355009250e-02 0.0000000000000000e+00  2.5959847156089076e-03 -3.7232189237522258e-02 0.0000000000000000e+00  7.3678154650400679e-03 -3.6811661646316392e-02 0.0000000000000000e+00  1.0780991936420303e-02 -3.5396517089447507e-02 0.0000000000000000e+00  2.1486097699785641e-03 2.6445978864027584e-04 0.0000000000000000e+00  7.9032654503726398e-03 8.8436661660729998e-04 0.0000000000000000e+00  1.1051301029421524e-02 -1.3489118803968658e-03 0.0000000000000000e+00  2.0273103991849683e-02 -4.2271276446175907e+00 0.0000000000000000e+00  -3.5308207747431397e-04 -4.4371240784783161e+00 0.0000000000000000e+00  1.2213425460702153e-02 -4.2240871880925397e+00 0.0000000000000000e+00  0.0000000000000000e+00 0.0000000000000000e+00 0.0000000000000000e+00  0.0000000000000000e+00 0.0000000000000000e+00 0.0000000000000000e+00  1.0497118234880953e-02 -4.2062489923787378e+00 0.0000000000000000e+00  -1.0236711080464169e-02 -4.4171059758473401e+00 0.0000000000000000e+00  2.2934365316002528e-03 -4.2062821095559428e+00 0.0000000000000000e+00  1.3857214491957898e-02 -1.1645717680847500e-02 0.0000000000000000e+00  9.2100089008045893e-03 -1.2065645575067679e-02 0.0000000000000000e+00  4.8167081702398026e-03 -1.1897584564811148e-02 0.0000000000000000e+00  -7.2029802045838927e-03 -4.5756998719731587e-02 0.0000000000000000e+00  -2.7561065676860873e-03 -4.7531462902846135e-02 0.0000000000000000e+00  2.6773208047749923e-03 -4.8035157811232271e-02 0.0000000000000000e+00  8.0723480482314969e-03 -4.7732656200487500e-02 0.0000000000000000e+00  1.0744438323324270e-02 -4.6142927798026818e-02 0.0000000000000000e+00  -1.2795974617659583e-02 9.5014279284257631e-03 0.0000000000000000e+00  -8.6725156413295576e-03 8.8358730577024168e-03 0.0000000000000000e+00  -4.5347829598532431e-03 1.0014968164782753e-02 0.0000000000000000e+00  1.8539980294481402e-02 -4.2208444010561692e+00 0.0000000000000000e+00  4.3257163177019988e-05 -4.4312632813706108e+00 0.0000000000000000e+00  1.2378309422058635e-02 -4.2175858240394719e+00 0.0000000000000000e+00  0.0000000000000000e+00 0.0000000000000000e+00 0.0000000000000000e+00  0.0000000000000000e+00 0.0000000000000000e+00 0.0000000000000000e+00  1.0360240385339484e-02 -4.1963787188911619e+00 0.0000000000000000e+00  -1.0964090281724986e-02 -4.4076900072335707e+00 0.0000000000000000e+00  1.3748628195675674e-03 -4.1960956612817526e+00 0.0000000000000000e+00  2.0963973349685857e-02 -1.7551299395261781e-02 0.0000000000000000e+00  1.8321693623604886e-02 -1.7122339532663858e-02 0.0000000000000000e+00  1.6778778405615057e-02 -1.7558015895548590e-02 0.0000000000000000e+00  -7.5903903521284755e-03 -6.0034654004718371e-02 0.0000000000000000e+00  -3.8661232247860118e-03 -5.9719919417299726e-02 0.0000000000000000e+00  2.2242520351044557e-03 -6.0161984786274138e-02 0.0000000000000000e+00  8.1664462874504115e-03 -5.9953416755096064e-02 0.0000000000000000e+00  1.0888179242907525e-02 -5.9359678023255508e-02 0.0000000000000000e+00  -1.9322962930106567e-02 1.5190309655170667e-02 0.0000000000000000e+00  -1.6666004502115601e-02 1.4709768683151320e-02 0.0000000000000000e+00  -1.5031145932959305e-02 1.4920351544130576e-02 0.0000000000000000e+00  1.9280641795958290e-02 -4.2110958265651002e+00 0.0000000000000000e+00  1.6470745961005783e-03 -4.4229516953821451e+00 0.0000000000000000e+00  1.3016194945059885e-02 -4.2086512756946446e+00 0.0000000000000000e+00  0.0000000000000000e+00 0.0000000000000000e+00 0.0000000000000000e+00  0.0000000000000000e+00 0.0000000000000000e+00 0.0000000000000000e+00  1.0143539914157665e-02 -4.1852172894857738e+00 0.0000000000000000e+00  -1.1608724033625509e-02 -4.3970301526379405e+00 0.0000000000000000e+00  4.9381256190697824e-04 -4.1842049717994492e+00 0.0000000000000000e+00  2.2985579180858515e-02 -1.9649773320462308e-02 0.0000000000000000e+00  2.2032734783801113e-02 -1.9557386958072485e-02 0.0000000000000000e+00  2.1931166363274260e-02 -2.0148891925785072e-02 0.0000000000000000e+00  -8.1112823995454150e-03 -7.5190274241998145e-02 0.0000000000000000e+00  -4.7119250373458491e-03 -7.3287007508661281e-02 0.0000000000000000e+00  1.6512616567495801e-03 -7.3605713917978655e-02 0.0000000000000000e+00  7.9424907968154712e-03 -7.3446497713427220e-02 0.0000000000000000e+00  1.1073758191238250e-02 -7.4175167414557167e-02 0.0000000000000000e+00  -2.0687595006078065e-02 1.7194492601046871e-02 0.0000000000000000e+00  -1.9782929321278054e-02 1.6839378666132374e-02 0.0000000000000000e+00  -1.9814569006441310e-02 1.7091327560175323e-02 0.0000000000000000e+00  2.0222784540362290e-02 -4.1983844351376440e+00 0.0000000000000000e+00  2.9914278245824068e-03 -4.4118931992951218e+00 0.0000000000000000e+00  1.3647327153377128e-02 -4.1972252792975473e+00 0.0000000000000000e+00  4.0846509306063943e-11 1.1430884854792893e-09 0.0000000000000000e+00  0.0000000000000000e+00 0.0000000000000000e+00 0.0000000000000000e+00  1.0008069743815164e-02 -4.1735074354431010e+00 0.0000000000000000e+00  -1.1741625097795210e-02 -4.3858485685311424e+00 0.0000000000000000e+00  3.7411431267123573e-04 -4.1715828006786371e+00 0.0000000000000000e+00  2.1368558466165748e-02 -1.8871230933259063e-02 0.0000000000000000e+00  2.1799557331166952e-02 -1.9239648582372929e-02 0.0000000000000000e+00  2.3057618743154967e-02 -2.0123674174296308e-02 0.0000000000000000e+00  -7.9642226768297762e-03 -9.0581803705871655e-02 0.0000000000000000e+00  -4.9950035178372293e-03 -8.7062816492996631e-02 0.0000000000000000e+00  1.1364601959702320e-03 -8.7236471715972555e-02 0.0000000000000000e+00  7.2479119625588929e-03 -8.7130259806047355e-02 0.0000000000000000e+00  1.0601081232451470e-02 -8.9401383818775937e-02 0.0000000000000000e+00  -1.8540626065620583e-02 1.6226680759296598e-02 0.0000000000000000e+00  -1.9033538394875975e-02 1.6373771918541124e-02 0.0000000000000000e+00  -2.0349219186199152e-02 1.7054520146188471e-02 0.0000000000000000e+00  2.1033660962270603e-02 -4.1840918516187102e+00 0.0000000000000000e+00  3.8106211311580299e-03 -4.3991209958835196e+00 0.0000000000000000e+00  1.4116271395379706e-02 -4.1842152119294198e+00 0.0000000000000000e+00  0.0000000000000000e+00 0.0000000000000000e+00 0.0000000000000000e+00  0.0000000000000000e+00 0.0000000000000000e+00 0.0000000000000000e+00  1.0055125477175943e-02 -4.1623391718282683e+00 0.0000000000000000e+00  -1.1148768425834732e-02 -4.3752055577749998e+00 0.0000000000000000e+00  1.3453080292315418e-03 -4.1595222235050509e+00 0.0000000000000000e+00  1.7302983945006043e-02 -1.5837668558355073e-02 0.0000000000000000e+00  1.8875765385807850e-02 -1.6735906727398421e-02 0.0000000000000000e+00  2.1124907574353074e-02 -1.8028280106611033e-02 0.0000000000000000e+00  -6.8723869328370787e-03 -1.0462420773946364e-01 0.0000000000000000e+00  -4.5493684163834102e-03 -9.9717918519809073e-02 0.0000000000000000e+00  7.3069542861039236e-04 -9.9755879193139080e-02 0.0000000000000000e+00  6.0424300687460693e-03 -9.9718254763605435e-02 0.0000000000000000e+00  9.2656735111579739e-03 -1.0350649221907504e-01 0.0000000000000000e+00  -1.4043189869172622e-02 1.3040297638574623e-02 0.0000000000000000e+00  -1.5670488417272803e-02 1.3767791410021718e-02 0.0000000000000000e+00  -1.7982185335491414e-02 1.4884475935826393e-02 0.0000000000000000e+00  2.1166501531641582e-02 -4.1696082287665392e+00 0.0000000000000000e+00  3.8828006557341315e-03 -4.3859317713901769e+00 0.0000000000000000e+00  1.4332494767343220e-02 -4.1709184400911692e+00 0.0000000000000000e+00  0.0000000000000000e+00 0.0000000000000000e+00 0.0000000000000000e+00  0.0000000000000000e+00 0.0000000000000000e+00 0.0000000000000000e+00  1.0324142321852329e-02 -4.1528964936497452e+00 0.0000000000000000e+00  -9.7965564841989150e-03 -4.3662452658899378e+00 0.0000000000000000e+00  3.4563680636375558e-03 -4.1493557657583473e+00 0.0000000000000000e+00  1.1708730847848911e-02 -1.1215554324768265e-02 0.0000000000000000e+00  1.4145098647482446e-02 -1.2591869862854616e-02 0.0000000000000000e+00  1.7057437771968796e-02 -1.4230984764130943e-02 0.0000000000000000e+00  -4.8773427181466452e-03 -1.1583108596008265e-01 0.0000000000000000e+00  -3.4300296290091952e-03 -1.0991411534936656e-01 0.0000000000000000e+00  4.4168836316475931e-04 -1.0985700220422129e-01 0.0000000000000000e+00  4.3795925470167633e-03 -1.0988973520682054e-01 0.0000000000000000e+00  7.0804766679159340e-03 -1.1497183510469812e-01 0.0000000000000000e+00  -8.1245506238704357e-03 8.2939934359763778e-03 0.0000000000000000e+00  -1.0610069425281738e-02 9.5512727635564138e-03 0.0000000000000000e+00  -1.3580209552278778e-02 1.1069434222717672e-02 0.0000000000000000e+00  2.0414325959922420e-02 -4.1564680925035855e+00 0.0000000000000000e+00  3.1331273878738202e-03 -4.3737027703507563e+00 0.0000000000000000e+00  1.4257097186366001e-02 -4.1587250750752336e+00 0.0000000000000000e+00  0.0000000000000000e+00 0.0000000000000000e+00 0.0000000000000000e+00  0.0000000000000000e+00 0.0000000000000000e+00 0.0000000000000000e+00  1.0806191854265937e-02 -4.1462477468570231e+00 0.0000000000000000e+00  -7.7879884366933629e-03 -4.3599920005090524e+00 0.0000000000000000e+00  6.5411577809981357e-03 -4.1422513811414721e+00 0.0000000000000000e+00  5.2872434594235258e-03 -5.6319746269370913e-03 0.0000000000000000e+00  8.3004083140951514e-03 -7.3435592407066052e-03 0.0000000000000000e+00  1.1554649728657785e-02 -9.1876429803458021e-03 0.0000000000000000e+00  -2.1759321597513040e-03 -1.2301584241763613e-01 0.0000000000000000e+00  -1.7778909198542892e-03 -1.1655681662627566e-01 0.0000000000000000e+00  2.6783349799356488e-04 -1.1644998589581304e-01 0.0000000000000000e+00  2.3947400588390034e-03 -1.1653925797609149e-01 0.0000000000000000e+00  4.2352601386935768e-03 -1.2254141865036262e-01 0.0000000000000000e+00  -1.5001851727438292e-03 2.6189226629768376e-03 0.0000000000000000e+00  -4.5546425391567299e-03 4.2697174608853049e-03 0.0000000000000000e+00 