<?xml version="1.0"?>
<VTKFile type="UnstructuredGrid"  version="0.1"  >
<UnstructuredGrid>
<Piece  NumberOfPoints="589" NumberOfCells="1080">
<Points>
<DataArray  type="Float64"  NumberOfComponents="3"  format="ascii">-9 0 0  -8 0 0  -7 0 0  -6 0 0  -5 0 0  -4 0 0  -3 0 0  -2 0 0  -1 0 0  0 0 0  1 0 0  2 0 0  3 0 0  4 0 0  5 0 0  6 0 0  7 0 0  8 0 0  9 0 0  -9 2 0  -8.000006758761225 1.999989913414995 0  -7.00001416560901 1.999981068052665 0  -6.000023756102424 1.999974471666784 0  -5.000039050488271 1.999970566311271 0  -4.000023179028477 1.999978028242323 0  -3.000006868243936 1.999985088130919 0  -1.99999890488054 1.999991708184191 0  -0.9999975546374931 1.999996943744243 0  -3.397067081163423e-07 1.999999254263939 0  0.9999965611144324 1.999997703559155 0  1.999996852404176 1.99999268138111 0  3.00000301499305 1.999986536369426 0  4.000015797256736 1.999980013553435 0  5.000034281362455 1.999977517485571 0  6.000020623966506 1.999978363759203 0  7.00001224857586 1.999983274778486 0  8.000005847263681 1.999990936566928 0  9 2 0  -9 4 0  -8.00001092503771 3.999974862517416 0  -7.000019596659726 3.999953140631287 0  -6.000024696570489 3.99993817944698 0  -5.000026494107506 3.999933167065921 0  -4.00000341867311 3.999936704944047 0  -2.99998793126928 3.99995658177684 0  -1.999983859719938 3.999982431087394 0  -0.9999896944224675 4.000003232604638 0  -9.235121079299879e-07 4.00001165631207 0  0.9999875969131145 4.000005217176138 0  1.999980910241683 3.999987715738511 0  2.999984057297031 3.999964036897858 0  3.999998569289778 3.999940303393401 0  5.000020777739492 3.999932619855429 0  6.000020119797233 3.999940468904934 0  7.000016600696337 3.999955547084188 0  8.000009478102163 3.999976267183026 0  9 4 0  -9 6 0  -8.000024104243908 5.999946152064254 0  -7.000039314493912 5.999898173019449 0  -6.000038846542099 5.999862094531329 0  -5.000020759724915 5.999843693311402 0  -3.999975772785579 5.999873202058137 0  -2.999955315470729 5.999934698975567 0  -1.99996341026141 5.999999130818124 0  -0.999983554962557 6.000034935537194 0  -3.909719757796462e-06 6.000042163400734 0  0.9999778235117965 6.000030668935892 0  1.999963922145707 5.999998808029939 0  2.999958711515314 5.999944974154697 0  3.999969279246523 5.999889217676234 0  5.000007455565504 5.999861774223685 0  6.000031060213689 5.99987365993169 0  7.000035366031165 5.999905254457946 0  8.000022529867136 5.999949549531517 0  9 6 0  -9 8 0  -8.000072850948643 7.999893979096946 0  -7.000121740159505 7.999795617211513 0  -6.000123469089621 7.999715314377896 0  -5.000058215016725 7.999670205792003 0  -3.999971125827924 7.999806152334254 0  -2.999987324771038 7.999965836371216 0  -2.000020142019622 8.000043560959627 0  -1.000023007120038 8.000052298826459 0  -3.587297749182293e-06 8.00005482344641 0  1.000010984101777 8.000062627780943 0  2.000005090251159 8.000030410273281 0  2.999967443249233 7.999975557208856 0  3.999954738391869 7.999839422736008 0  5.000039921504194 7.999685781647173 0  6.000119185975412 7.999728034875724 0  7.000122687883141 7.999804174287476 0  8.000074346694056 7.999898221344933 0  9 8 0  -9 10 0  -8.000217378589198 9.999811223215779 0  -7.000392737586119 9.999620907470058 0  -6.000475956482018 9.999427892957272 0  -5.000397246113516 9.999231918813553 0  -4.000259056345877 9.999671129007032 0  -3.000281967249094 10.00004869624711 0  -2.000226122970311 9.999983283551343 0  -1.000104789120397 9.999962295017603 0  -1.553431279940149e-05 9.999957177359084 0  1.000072922976984 9.99995760998128 0  2.000190580246701 9.999955396322324 0  3.000294250332163 10.00009068883433 0  4.000281367828491 9.999734818009346 0  5.000437550838626 9.999265149361026 0  6.000510221623758 9.99944697319296 0  7.000417293702761 9.999631523870157 0  8.000230127811143 9.999816004955678 0  9 10 0  -9 12 0  -8.000529678306492 11.99973473688532 0  -7.001031795376019 11.99945718469812 0  -6.001475194424533 11.99915264457838 0  -5.001821231049563 11.99880061445059 0  -4.001750462684953 11.99960206092241 0  -3.001814666618878 12.00039555072581 0  -2.001248498377325 12.0002991435625 0  -1.000618190663673 12.00024668937944 0  3.65067965812666e-05 12.00023597326032 0  1.000697911218893 12.00026860922349 0  2.001351167058483 12.00035418607751 0  3.001966883742393 12.00051674627426 0  4.001899238887 11.9996626083671 0  5.00194413374903 11.99880143310381 0  6.001562962296279 11.99915525261897 0  7.001088506480256 11.9994593043896 0  8.000557545799115 11.99973582721805 0  9 12 0  -9 14 0  -8.000951590020197 13.99970753561351 0  -7.001904711908836 13.99940163653734 0  -6.002862148516961 13.99906768176538 0  -5.003829917806972 13.99868872365433 0  -4.003839793993081 13.99962639421377 0  -3.003845901942362 14.000575930289 0  -2.002528625229281 14.0004394285507 0  -1.001229677238673 14.00036434089631 0  6.186312954019548e-05 14.000341552841 0  1.001356412909823 14.00036808004571 0  2.002663661163725 14.00044538070501 0  3.003991254913323 14.00057766897931 0  4.004001757924035 13.99962937002724 0  5.004007442529106 13.99868698162975 0  6.002987326494316 13.99906309807318 0  7.001984852644181 13.99939749655725 0  8.000990752202018 13.99970521158224 0  9 14 0  -9 16 0  -8.001366509812806 15.99973415899801 0  -7.002758945893405 15.99945849282959 0  -6.004205480532253 15.99916300541058 0  -5.005738881733297 15.99883751929396 0  -4.005793308431922 15.99963882279313 0  -3.005742178741226 16.00043589608071 0  -2.003737671274365 16.00033474983612 0  -1.001812515242244 16.00027335173349 0  7.521380467313563e-05 16.00025037463645 0  1.001965152445643 16.00026495182277 0  2.003896957384286 16.00031711848597 0  3.005912825622766 16.00040761117842 0  4.005970556907565 15.99960494714457 0  5.005920100880452 15.99880167032413 0  6.004338562427352 15.99913815216891 0  7.002846154910019 15.99944265823193 0  8.001409641337759 15.99972642634176 0  9 16 0  -9 18 0  -8.001676810221698 17.99980010568713 0  -7.003395152878752 17.9995947246301 0  -6.005198720228526 17.9993784694481 0  -5.007135507284119 17.99914617585411 0  -4.007217812812155 17.99964193950881 0  -3.00713876696908 18.00013706794916 0  -2.004632171366469 18.00007164862748 0  -1.002246986821008 18.00002926863494 0  7.966943087922343e-05 18.00000956232709 0  1.002407634479961 18.00001203545948 0  2.004796660856881 18.00003609744895 0  3.007309338227675 18.00008094325645 0  4.007393155920083 17.99958667655651 0  5.007313331465663 17.99909387070816 0  6.005330351320275 17.99934132522731 0  7.00348204657563 17.99957090439544 0  8.001719994192108 17.99978846714196 0  9 18 0  -9 20 0  -8.001820135247666 19.99988798529306 0  -7.003688788509934 19.99977447502345 0  -6.005656331062763 19.9996581363307 0  -5.007776841219625 19.99953795696542 0  -4.007870822436501 19.99964225321908 0  -3.007778267612736 19.99974585268339 0  -2.005044251926032 19.99971680962126 0  -1.002448879179782 19.99969492374798 0  7.882202682821319e-05 19.99968046361357 0  1.00260725262648 19.99967318054023 0  2.005204777867315 19.99967232665922 0  3.007942271013602 19.99967661009745 0  4.008036619744184 19.99957758238173 0  5.007943519262161 19.99947956110329 0  6.005780431913074 19.99961606047616 0  7.003771079576341 19.99974724299748 0  8.00186114584808 19.99987461447816 0  8.999999999992772 19.99999999999313 0  -9 22 0  -8.001768606520207 21.99998183101481 0  -7.003585203841113 21.99996553535946 0  -6.005499288478851 21.99995316898874 0  -5.00756335639352 21.99994715670401 0  -4.007655408702314 21.99963875223357 0  -3.007564265550539 21.9993295760998 0  -2.004905027663294 21.99933348218514 0  -1.002381626322528 21.99933102900607 0  7.504990275540837e-05 21.99932280951573 0  1.002532016228387 21.99930874972871 0  2.005056264009527 21.99928812130265 0  3.007716834885919 21.99925952919013 0  4.007807540738275 21.99957467700308 0  5.007714776597239 21.99989040670488 0  6.005612681973481 21.99991205399484 0  7.003660702318257 21.99993881035228 0  8.001806321373373 21.99996867386865 0  9 22 0  -9 24 0  -8.001524311824916 24.00006818394527 0  -7.003089970893214 24.0001408775588 0  -6.004739486986373 24.00022277849528 0  -5.006517618845598 24.00031896995979 0  -4.006597014935588 23.99963172304235 0  -3.006518988559439 23.99894378607014 0  -2.004225626962047 23.99897546590813 0  -1.002048936167209 23.99899008047669 0  7.019168092117893e-05 23.99898839602956 0  1.002189273217646 23.99897046348662 0  2.004365806545181 23.99893562175168 0  3.006658845032657 23.99888249271247 0  4.006734642360438 23.99957638408693 0  5.006653384459152 24.00027061707452 0  6.004841695999916 24.00018759275608 0  7.003158278621975 24.00011793452039 0  8.001558508689273 24.00005686686303 0  9 24 0  -9 26 0  -8.001113712226337 26.00013651455214 0  -7.002257512722128 26.00027940168631 0  -6.003462306675891 26.00043522390565 0  -5.004760488792485 26.00061093601321 0  -4.004819068102215 25.99962169812044 0  -3.004762986960776 25.99863192877133 0  -2.003082596280283 25.99868542386989 0  -1.001487377536067 25.99871404174276 0  6.564871696661972e-05 25.99871868457405 0  1.001618379014804 25.99869951531187 0  2.003212691741642 25.99865595871298 0  3.004891511724708 25.99858669902146 0  4.004944077783215 25.99958122659795 0  5.00488280642911 26.00057591168033 0  6.003554863470146 26.00040966819441 0  7.002319590601476 26.00026270376224 0  8.001144855715497 26.00012826717335 0  9 26 0  -9 28 0  -8.000581699539962 28.0001793735884 0  -7.001179147640845 28.00036619614446 0  -6.001808553183701 28.00056810901033 0  -5.002486845920607 28.00079314406716 0  -4.002519041794481 27.99960963968852 0  -3.002490724496593 27.99842586016456 0  -2.001601866766047 27.99849458981026 0  -1.000758402023887 27.99853359729464 0  6.242311026430594e-05 27.99854390881137 0  1.000882788474414 27.99852579587951 0  2.001724852857626 27.99847877615835 0  3.002611307015002 27.99840161219452 0  4.002635334619356 27.99958813881124 0  5.00259995880316 28.00077473685073 0  6.001894499533886 28.00055464969772 0  7.001236959258036 28.00035738755988 0  8.00061
[...]
<PointData  Vectors="f_44-0"> 
<DataArray  type="Float64"  Name="f_44-0"  NumberOfComponents="3" format="ascii">0.0000000000000000e+00 0.0000000000000000e+00 0.0000000000000000e+00  7.4684532586057219e-08 -3.7693557492305181e+00 0.0000000000000000e+00  1.5841148404122145e-07 -3.7309284099048483e+00 0.0000000000000000e+00  3.3300648765121079e-07 -3.3676611571311992e+00 0.0000000000000000e+00  0.0000000000000000e+00 0.0000000000000000e+00 0.0000000000000000e+00  0.0000000000000000e+00 0.0000000000000000e+00 0.0000000000000000e+00  0.0000000000000000e+00 0.0000000000000000e+00 0.0000000000000000e+00  0.0000000000000000e+00 0.0000000000000000e+00 0.0000000000000000e+00  0.0000000000000000e+00 0.0000000000000000e+00 0.0000000000000000e+00  0.0000000000000000e+00 0.0000000000000000e+00 0.0000000000000000e+00  0.0000000000000000e+00 0.0000000000000000e+00 0.0000000000000000e+00  0.0000000000000000e+00 0.0000000000000000e+00 0.0000000000000000e+00  0.0000000000000000e+00 0.0000000000000000e+00 0.0000000000000000e+00  0.0000000000000000e+00 0.0000000000000000e+00 0.0000000000000000e+00  0.0000000000000000e+00 0.0000000000000000e+00 0.0000000000000000e+00  7.7159753295018903e-08 -3.7814931556784943e+00 0.0000000000000000e+00  1.6003647494092601e-07 -3.7421913954054205e+00 0.0000000000000000e+00  3.3357799467384354e-07 -3.3764891314820336e+00 0.0000000000000000e+00  0.0000000000000000e+00 0.0000000000000000e+00 0.0000000000000000e+00  0.0000000000000000e+00 0.0000000000000000e+00 0.0000000000000000e+00  -4.3863758108942628e-03 -3.5146147741756262e+00 0.0000000000000000e+00  3.7809631958633651e-03 -3.7262643945341689e+00 0.0000000000000000e+00  2.4969047882119889e-02 -3.5253217073542928e+00 0.0000000000000000e+00  1.4289634150206820e-03 -4.4664240690321059e-04 0.0000000000000000e+00  1.5721627849717120e-03 -9.5010107681592045e-04 0.0000000000000000e+00  8.6040025445505901e-04 -5.5051434420322462e-04 0.0000000000000000e+00  6.4909139325609020e-04 1.0043163491291856e-04 0.0000000000000000e+00  3.6961365360318207e-04 4.5584202528684741e-04 0.0000000000000000e+00  1.3627315704471015e-04 3.7195323588280950e-04 0.0000000000000000e+00  -1.0354129790702039e-04 -2.6693344173382709e-06 0.0000000000000000e+00  -2.8329574963714791e-04 -4.9054995887622458e-04 0.0000000000000000e+00  -5.4215158030186780e-04 -1.2308341651762094e-03 0.0000000000000000e+00  -9.1690231702527120e-04 -1.4045539226284114e-03 0.0000000000000000e+00  -1.5570910607464235e-03 -2.3863583585896002e-03 0.0000000000000000e+00  -4.5472960400869209e-03 -3.5250885790412525e+00 0.0000000000000000e+00  4.0297428856357325e-03 -3.7374512633681953e+00 0.0000000000000000e+00  2.5099355677138151e-02 -3.5361200866209948e+00 0.0000000000000000e+00  0.0000000000000000e+00 0.0000000000000000e+00 0.0000000000000000e+00  0.0000000000000000e+00 0.0000000000000000e+00 0.0000000000000000e+00  1.1411079746552387e-02 -3.5247826463184944e+00 0.0000000000000000e+00  -3.6605788790637049e-03 -3.7133035206699083e+00 0.0000000000000000e+00  1.1329644785609166e-02 -3.5273665952523263e+00 0.0000000000000000e+00  -1.3561110926958006e-03 -1.9648635079516372e-03 0.0000000000000000e+00  -1.1520561045725668e-04 1.6161479914341401e-05 0.0000000000000000e+00  1.7389312448462324e-04 1.6000665319500145e-03 0.0000000000000000e+00  8.5379702577642084e-05 1.7019017174212585e-03 0.0000000000000000e+00  -3.3899362360915162e-04 7.5808963917502897e-04 0.0000000000000000e+00  -4.9390415385383698e-04 -1.1196348846846336e-04 0.0000000000000000e+00  -3.7102880637265764e-04 -2.5026433531841186e-04 0.0000000000000000e+00  3.2101452564034213e-04 -8.2435457540209968e-04 0.0000000000000000e+00  4.5367330812453644e-04 -1.4649527772515509e-03 0.0000000000000000e+00  1.5995059662849469e-04 -7.8605107854288602e-04 0.0000000000000000e+00  -2.2903225340151900e-04 4.2157217115915127e-05 0.0000000000000000e+00  1.1629018565757938e-02 -3.5350521042268577e+00 0.0000000000000000e+00  -3.6485919478848271e-03 -3.7237686317869731e+00 0.0000000000000000e+00  1.0884109050506506e-02 -3.5377486263737836e+00 0.0000000000000000e+00  0.0000000000000000e+00 0.0000000000000000e+00 0.0000000000000000e+00  0.0000000000000000e+00 0.0000000000000000e+00 0.0000000000000000e+00  1.0899814068191325e-02 -3.5270794719922263e+00 0.0000000000000000e+00  -3.1955215863375261e-03 -3.7144713170134320e+00 0.0000000000000000e+00  1.1059836215339576e-02 -3.5261949206146030e+00 0.0000000000000000e+00  -2.9912519746431395e-03 1.7521692626953824e-03 0.0000000000000000e+00  -1.5144617836473850e-03 4.3824090548477204e-03 0.0000000000000000e+00  -1.4076051494160578e-03 3.6218343441975060e-03 0.0000000000000000e+00  -2.3429490277280429e-03 -7.3989971106404784e-04 0.0000000000000000e+00  -1.4568926575620417e-03 -2.7038538123072644e-03 0.0000000000000000e+00  -1.8988615694398169e-04 -1.3706828693026180e-03 0.0000000000000000e+00  7.8960954532105094e-04 -6.2992930086457717e-04 0.0000000000000000e+00  5.8962141070974163e-04 -4.5000356275682121e-04 0.0000000000000000e+00  1.1185594107152371e-03 -7.1390007296467174e-05 0.0000000000000000e+00  1.8465484150575174e-03 -2.3537352913423136e-03 0.0000000000000000e+00  4.3791608357033322e-04 -4.7500651326926263e-03 0.0000000000000000e+00  1.3066518228828615e-02 -3.5362716353833088e+00 0.0000000000000000e+00  -2.3681766590848202e-03 -3.7233117535270934e+00 0.0000000000000000e+00  1.0583323761759890e-02 -3.5350104086081111e+00 0.0000000000000000e+00  0.0000000000000000e+00 0.0000000000000000e+00 0.0000000000000000e+00  0.0000000000000000e+00 0.0000000000000000e+00 0.0000000000000000e+00  1.0146310814402404e-02 -3.5270873606886015e+00 0.0000000000000000e+00  -4.3554932077708945e-03 -3.7158642242347133e+00 0.0000000000000000e+00  8.9591811153425793e-03 -3.5307509105406929e+00 0.0000000000000000e+00  -1.1354022050963284e-02 -2.4322885258485300e-03 0.0000000000000000e+00  -1.3159562927461434e-02 2.4542737681539193e-03 0.0000000000000000e+00  -4.4741086235948477e-03 -4.8646583617686203e-03 0.0000000000000000e+00  -4.2235498878223079e-03 -9.5352800811392326e-03 0.0000000000000000e+00  4.7704656713927295e-04 -5.1084585604347999e-03 0.0000000000000000e+00  1.9414821964644430e-03 -4.3507145171719185e-03 0.0000000000000000e+00  4.6452000622762158e-03 -8.8056560043303957e-03 0.0000000000000000e+00  4.3621726799025502e-03 -1.4894612749646000e-03 0.0000000000000000e+00  1.6390550274132547e-02 -5.6520909686993233e-03 0.0000000000000000e+00  1.7675882306190355e-02 -1.4344032051340081e-02 0.0000000000000000e+00  1.1076549690775109e-02 -1.3358781693311369e-02 0.0000000000000000e+00  1.4339357751773731e-02 -3.5347502708185896e+00 0.0000000000000000e+00  -8.2390904297547360e-04 -3.7211298309563943e+00 0.0000000000000000e+00  1.1261111519418719e-02 -3.5323733327438220e+00 0.0000000000000000e+00  0.0000000000000000e+00 0.0000000000000000e+00 0.0000000000000000e+00  0.0000000000000000e+00 0.0000000000000000e+00 0.0000000000000000e+00  8.6226174976427091e-03 -3.5228671612167006e+00 0.0000000000000000e+00  -9.4217103812870504e-03 -3.7106118128449661e+00 0.0000000000000000e+00  -3.4490724409517001e-03 -3.5223980817399090e+00 0.0000000000000000e+00  -5.0698638478077429e-02 1.7804344478388606e-02 0.0000000000000000e+00  -3.9163921203679418e-02 1.2326720556276417e-02 0.0000000000000000e+00  -2.1289947955266682e-02 7.7471478065094671e-03 0.0000000000000000e+00  1.2672896989670657e-03 -1.7457042848816669e-02 0.0000000000000000e+00  1.5628219711541587e-03 -6.9156101334070016e-03 0.0000000000000000e+00  4.4837499436957513e-03 -4.9708078256085111e-03 0.0000000000000000e+00  7.0846798112612977e-03 -5.3055828970868107e-03 0.0000000000000000e+00  6.5832065772615531e-03 -5.8936608949664579e-03 0.0000000000000000e+00  3.3715478677688857e-02 -9.4847100490449403e-03 0.0000000000000000e+00  4.1155828596401330e-02 -1.8052740497458065e-02 0.0000000000000000e+00  4.3014051150039222e-02 -2.1971428778222717e-02 0.0000000000000000e+00  2.1109061864455426e-02 -3.5311834597426128e+00 0.0000000000000000e+00  1.1559733029805725e-03 -3.7168213009533173e+00 0.0000000000000000e+00  1.1833146676665365e-02 -3.5281169260264895e+00 0.0000000000000000e+00  0.0000000000000000e+00 0.0000000000000000e+00 0.0000000000000000e+00  0.0000000000000000e+00 0.0000000000000000e+00 0.0000000000000000e+00  8.2656639662462474e-03 -3.5160610489914070e+00 0.0000000000000000e+00  -1.0154116238748278e-02 -3.7035281882005808e+00 0.0000000000000000e+00  -8.1988010738757758e-05 -3.5171692788410569e+00 0.0000000000000000e+00  -2.8601013496253862e-02 1.0129483462943172e-02 0.0000000000000000e+00  -3.7341203235552546e-02 1.4198248574595219e-02 0.0000000000000000e+00  -5.0191238125248151e-02 2.9356801576161266e-02 0.0000000000000000e+00  -1.9503650460854963e-02 -2.5038495553906033e-02 0.0000000000000000e+00  -6.8362236738365809e-03 -2.5544977113884135e-02 0.0000000000000000e+00  2.4910402667770262e-03 -2.3670319728416617e-02 0.0000000000000000e+00  9.1823514159578030e-03 -2.3646235884084928e-02 0.0000000000000000e+00  9.8009899443134256e-03 -2.5016441663126224e-02 0.0000000000000000e+00  2.0696164729949611e-02 -1.3504712807906912e-02 0.0000000000000000e+00  3.2644565178030924e-02 -1.2064889601424560e-02 0.0000000000000000e+00  4.2658377186890563e-02 -4.2681660819954767e-03 0.0000000000000000e+00  2.4205234132338695e-02 -3.5269091787317364e+00 0.0000000000000000e+00  9.7498264819500288e-04 -3.7112961221187040e+00 0.0000000000000000e+00  1.1739602404036742e-02 -3.5224739090568544e+00 0.0000000000000000e+00  0.0000000000000000e+00 0.0000000000000000e+00 0.0000000000000000e+00  0.0000000000000000e+00 0.0000000000000000e+00 0.0000000000000000e+00  8.1269388876520562e-03 -3.5073335796249356e+00 0.0000000000000000e+00  -1.0925960771105555e-02 -3.6949635491328361e+00 0.0000000000000000e+00  -1.3193529926825887e-03 -3.5085133834058526e+00 0.0000000000000000e+00  -4.1707424244073459e-03 -1.8679665873872037e-03 0.0000000000000000e+00  -9.7586644334849201e-03 -1.6505866544464566e-03 0.0000000000000000e+00  -1.2782541137005107e-02 -8.5202366997598391e-03 0.0000000000000000e+00  -8.7474759258775892e-03 -3.7769077878952409e-02 0.0000000000000000e+00  -3.2086855736552073e-03 -3.8628895596613165e-02 0.0000000000000000e+00  2.3512877667390434e-03 -3.7846907241467276e-02 0.0000000000000000e+00  8.1123754532663270e-03 -3.7417498611516185e-02 0.0000000000000000e+00  1.2486382528705344e-02 -3.5526645961560258e-02 0.0000000000000000e+00  5.7210296057409685e-03 7.6012623491652099e-04 0.0000000000000000e+00  1.1134905247957134e-02 4.7715383892553632e-04 0.0000000000000000e+00  1.4097152174352231e-02 -2.4781478425706669e-03 0.0000000000000000e+00  2.1418165472530185e-02 -3.5190741955053206e+00 0.0000000000000000e+00  1.9763569017071311e-03 -3.7052156145615371e+00 0.0000000000000000e+00  1.1890550522072879e-02 -3.5155355610688304e+00 0.0000000000000000e+00  0.0000000000000000e+00 0.0000000000000000e+00 0.0000000000000000e+00  0.0000000000000000e+00 0.0000000000000000e+00 0.0000000000000000e+00  7.8521418234063691e-03 -3.4964870173377105e+00 0.0000000000000000e+00  -1.2063442091218974e-02 -3.6845076422527789e+00 0.0000000000000000e+00  -2.5064390428629875e-03 -3.4976735657215148e+00 0.0000000000000000e+00  7.5667746868367664e-03 -1.2005840581815334e-02 0.0000000000000000e+00  3.1373934933184786e-03 -1.1650768500870306e-02 0.0000000000000000e+00  -9.5668928585527948e-04 -1.0746195380882114e-02 0.0000000000000000e+00  -1.0897454420228036e-02 -4.9126472226524366e-02 0.0000000000000000e+00  -4.6562751602342387e-03 -5.0612991407746638e-02 0.0000000000000000e+00  2.4029268063286663e-03 -5.1200890037610733e-02 0.0000000000000000e+00  9.3472722709459968e-03 -5.0995169131781058e-02 0.0000000000000000e+00  1.3920547056524658e-02 -4.9229579935319179e-02 0.0000000000000000e+00  -6.5879401211838811e-03 9.2771605328386565e-03 0.0000000000000000e+00  -2.6557007753406758e-03 7.9284104346301603e-03 0.0000000000000000e+00  1.1888251637571963e-03 8.3090751414761407e-03 0.0000000000000000e+00  2.1459671229331186e-02 -3.5098864431022614e+00 0.0000000000000000e+00  3.2769771045164345e-03 -3.6967714974929429e+00 0.0000000000000000e+00  1.2363963579568331e-02 -3.5063737668617634e+00 0.0000000000000000e+00  0.0000000000000000e+00 0.0000000000000000e+00 0.0000000000000000e+00  0.0000000000000000e+00 0.0000000000000000e+00 0.0000000000000000e+00  7.4655313547186668e-03 -3.4834544623029262e+00 0.0000000000000000e+00  -1.3288121840044449e-02 -3.6719854323778143e+00 0.0000000000000000e+00  -4.3110518282415853e-03 -3.4840508546375264e+00 0.0000000000000000e+00  1.2983235037036614e-02 -1.7290073610826424e-02 0.0000000000000000e+00  1.0410110851284163e-02 -1.6421218513202752e-02 0.0000000000000000e+00  9.0207274848644152e-03 -1.6365047841385937e-02 0.0000000000000000e+00  -1.2215636724585154e-02 -6.7189988964627731e-02 0.0000000000000000e+00  -6.1509144811721693e-03 -6.6341821229010431e-02 0.0000000000000000e+00  1.9764939772783652e-03 -6.6775572520849064e-02 0.0000000000000000e+00  9.9070838131321750e-03 -6.6826096108888150e-02 0.0000000000000000e+00  1.5106618674239503e-02 -6.6462518007634086e-02 0.0000000000000000e+00  -1.1496437377721552e-02 1.4327921990983632e-02 0.0000000000000000e+00  -8.9159523144997539e-03 1.3440727407038782e-02 0.0000000000000000e+00  -7.4475470091224889e-03 1.3204898004895113e-02 0.0000000000000000e+00  2.3250979539721085e-02 -3.4965456149493375e+00 0.0000000000000000e+00  5.3770660970390328e-03 -3.6853118474072448e+00 0.0000000000000000e+00  1.3152465345707166e-02 -3.4942153957098818e+00 0.0000000000000000e+00  0.0000000000000000e+00 0.0000000000000000e+00 0.0000000000000000e+00  0.0000000000000000e+00 0.0000000000000000e+00 0.0000000000000000e+00  7.1480707830824785e-03 -3.4687844099702243e+00 0.0000000000000000e+00  -1.4082609993971460e-02 -3.6578766374721519e+00 0.0000000000000000e+00  -5.5400912936842180e-03 -3.4683028886342484e+00 0.0000000000000000e+00  1.4317070199884031e-02 -1.8919912685716776e-02 0.0000000000000000e+00  1.3322758640266266e-02 -1.8728823144900396e-02 0.0000000000000000e+00  1.3302755582051297e-02 -1.9182381905309510e-02 0.0000000000000000e+00  -1.3032053600193987e-02 -8.7048977838238450e-02 0.0000000000000000e+00  -7.1390902026692640e-03 -8.4028523459498267e-02 0.0000000000000000e+00  1.4576558434485209e-03 -8.4211283248140797e-02 0.0000000000000000e+00  9.9151540750060489e-03 -8.4479010558645221e-02 0.0000000000000000e+00  1.5790034133111450e-02 -8.5969336790993972e-02 0.0000000000000000e+00  -1.2259597765720822e-02 1.5850929626877328e-02 0.0000000000000000e+00  -1.1316499148802462e-02 1.5446481075516983e-02 0.0000000000000000e+00  -1.1426729014016167e-02 1.5614824593537198e-02 0.0000000000000000e+00  2.4508327656805225e-02 -3.4800093630646445e+00 0.0000000000000000e+00  6.8449771919455301e-03 -3.6708906163036650e+00 0.0000000000000000e+00  1.3768857092310278e-02 -3.4793548676338211e+00 0.0000000000000000e+00  -1.7861799600410293e-12 7.9309135973716634e-11 0.0000000000000000e+00  0.0000000000000000e+00 0.0000000000000000e+00 0.0000000000000000e+00  7.0714954462053467e-03 -3.4536220920268028e+00 0.0000000000000000e+00  -1.4013388328024951e-02 -3.6433001816659818e+00 0.0000000000000000e+00  -5.4612288110760928e-03 -3.4518501840714926e+00 0.0000000000000000e+00  1.3008034251986248e-02 -1.7825119032353978e-02 0.0000000000000000e+00  1.3319984392235047e-02 -1.8447365958316888e-02 0.0000000000000000e+00  1.4580591386502370e-02 -1.9557177884363029e-02 0.0000000000000000e+00  -1.2651913334330925e-02 -1.0724913674488323e-01 0.0000000000000000e+00  -7.3155301982857435e-03 -1.0206708109219270e-01 0.0000000000000000e+00  9.8997369899563406e-04 -1.0194639566049794e-01 0.0000000000000000e+00  9.2027342670221828e-03 -1.0242859598387861e-01 0.0000000000000000e+00  1.5269059802610667e-02 -1.0602467748726715e-01 0.0000000000000000e+00  -1.0500266030965237e-02 1.4568820945603161e-02 0.0000000000000000e+00  -1.0877230654108823e-02 1.5015197911280432e-02 0.0000000000000000e+00  -1.2197090160836588e-02 1.5965316236414371e-02 0.0000000000000000e+00  2.4882335829343644e-02 -3.4621002533587153e+00 0.0000000000000000e+00  7.3904320394050345e-03 -3.6549423121745681e+00 0.0000000000000000e+00  1.4055597319573133e-02 -3.4630863900924949e+00 0.0000000000000000e+00  0.0000000000000000e+00 0.0000000000000000e+00 0.0000000000000000e+00  0.0000000000000000e+00 0.0000000000000000e+00 0.0000000000000000e+00  7.3265124610298032e-03 -3.4394423278142012e+00 0.0000000000000000e+00  -1.2902599539934372e-02 -3.6296932195067284e+00 0.0000000000000000e+00  -3.7928248079012999e-03 -3.4364146778530396e+00 0.0000000000000000e+00  1.0147522817276180e-02 -1.4637928412075361e-02 0.0000000000000000e+00  1.1548931175619172e-02 -1.6107080067845187e-02 0.0000000000000000e+00  1.3733613681650480e-02 -1.7949869695466695e-02 0.0000000000000000e+00  -1.0829716465365636e-02 -1.2571184422211301e-01 0.0000000000000000e+00  -6.5412416642048827e-03 -1.1865135093945064e-01 0.0000000000000000e+00  6.2297788601682602e-04 -1.1823439718889923e-01 0.0000000000000000e+00  7.7375318141811710e-03 -1.1891378756920629e-01 0.0000000000000000e+00  1.3361810280049881e-02 -1.2456404470088871e-01 0.0000000000000000e+00  -7.2768993357469345e-03 1.1233150903868339e-02 0.0000000000000000e+00  -8.7383490251521003e-03 1.2569161998305574e-02 0.0000000000000000e+00  -1.0987857291875212e-02 1.4272901528415097e-02 0.0000000000000000e+00  2.3941489637666104e-02 -3.4446117890999139e+00 0.0000000000000000e+00  6.8392889745192090e-03 -3.6391164739425155e+00 0.0000000000000000e+00  1.3944404117536773e-02 -3.4470718734887607e+00 0.0000000000000000e+00  0.0000000000000000e+00 0.0000000000000000e+00 0.0000000000000000e+00  0.0000000000000000e+00 0.0000000000000000e+00 0.0000000000000000e+00  7.9263523160484368e-03 -3.4277542072532285e+00 0.0000000000000000e+00  -1.0783373197230984e-02 -3.6185171882041014e+00 0.0000000000000000e+00  -5.8101965576940948e-04 -3.4236921134644906e+00 0.0000000000000000e+00  6.4884237936269126e-03 -1.0022830344092456e-02 0.0000000000000000e+00  8.7250496418898107e-03 -1.2220184759130264e-02 0.0000000000000000e+00  1.1517136334150137e-02 -1.4667250771705359e-02 0.0000000000000000e+00  -7.6955042742761926e-03 -1.4046995425254807e-01 0.0000000000000000e+00  -4.9055355161120332e-03 -1.3202191629596338e-01 0.0000000000000000e+00  3.6238802358149255e-04 -1.3136157106865537e-01 0.0000000000000000e+00  5.6088049148440514e-03 -1.3219519703263496e-01 0.0000000000000000e+00  1.0159596566131735e-02 -1.3959022803490109e-01 0.0000000000000000e+00  -3.3470492854516644e-03 6.4984774353928120e-03 0.0000000000000000e+00  -5.6410036780760774e-03 8.6038575938269767e-03 0.0000000000000000e+00  -8.4948469178320000e-03 1.0955800865977007e-02 0.0000000000000000e+00  2.1632153752996219e-02 -3.4294077031995625e+00 0.0000000000000000e+00  5.2003710697621965e-03 -3.6250825807536731e+00 0.0000000000000000e+00  1.3435487529264394e-02 -3.4330018879275155e+00 0.0000000000000000e+00  0.0000000000000000e+00 0.0000000000000000e+00 0.0000000000000000e+00  0.0000000000000000e+00 0.0000000000000000e+00 0.0000000000000000e+00  8.8245834474245527e-03 -3.4198598440068113e+00 0.0000000000000000e+00  -7.8470388585514268e-03 -3.6110243667211828e+00 0.0000000000000000e+00  3.8785378617288905e-03 -3.4151146265509356e+00 0.0000000000000000e+00  2.5155644144992432e-03 -4.5974441443912741e-03 0.0000000000000000e+00  5.3218899678425949e-03 -7.2909152219657021e-03 0.0000000000000000e+00  8.4128957446445562e-03 -1.0110528387083999e-02 0.0000000000000000e+00  -3.5703911880694233e-03 -1.4995358591847768e-01 0.0000000000000000e+00  -2.6042270795159981e-03 -1.4074456058965623e-01 0.0000000000000000e+00  2.0608397917058362e-04 -1.3991581817602869e-01 0.0000000000000000e+00  3.0061755651338215e-03 -1.4083660768515013e-01 0.0000000000000000e+00  5.9682704913085445e-03 -1.4946755566893560e-01 0.0000000000000000e+00  7.9411062371006406e-04 9.8544295806585712e-04 0.0000000000000000e+00  -2.0639934201069849e-03 3.6324848587641059e-03 0.000000000000000