<?xml version="1.0"?>
<VTKFile type="UnstructuredGrid"  version="0.1"  >
<UnstructuredGrid>
<Piece  NumberOfPoints="589" NumberOfCells="1080">
<Points>
<DataArray  type="Float64"  NumberOfComponents="3"  format="ascii">-9 0 0  -8 0 0  -7 0 0  -6 0 0  -5 0 0  -4 0 0  -3 0 0  -2 0 0  -1 0 0  0 0 0  1 0 0  2 0 0  3 0 0  4 0 0  5 0 0  6 0 0  7 0 0  8 0 0  9 0 0  -9 2 0  -8.000006822449279 1.999989824426595 0  -7.000014300120476 1.99998089994318 0  -6.000023983591244 1.999974242175987 0  -5.0000394259664 1.999970296176518 0  -4.000023413216668 1.99997782910374 0  -3.000006954007107 1.999984950600168 0  -1.999998914101089 1.999991625923211 0  -0.99999754249814 1.999996904865853 0  -3.404428381327463e-07 1.999999234045972 0  0.9999965453755804 1.9999976696029 0  1.999996850752087 1.999992604198904 0  3.00000307800768 1.99998640524845 0  4.000015983232976 1.999979822298954 0  5.000034643603612 1.999977294985651 0  6.000020844720107 1.999978156832568 0  7.000012379911651 1.999983117676179 0  8.000005909747408 1.999990852206798 0  9 2 0  -9 4 0  -8.000011023869799 3.999974645081576 0  -7.000019777067084 3.999952733460896 0  -6.000024931498569 3.999937637520081 0  -5.000026759168533 3.999932571719963 0  -4.000003484004882 3.999936138427041 0  -2.999987857901891 3.99995617947169 0  -1.999983740208686 3.999982242917592 0  -0.9999896091225813 4.000003215770931 0  -9.166058379588888e-07 4.000011707873317 0  0.9999875236258811 4.000005213173314 0  1.999980797010756 3.999987562704663 0  2.999983986415353 3.999963681212879 0  3.999998635271647 3.99993974195775 0  5.000021042249183 3.999931981954143 0  6.000020353021722 3.999939918054408 0  7.000016781101483 3.999955141219445 0  8.000009577591493 3.999976052002605 0  9 4 0  -9 6 0  -8.000024307235266 5.999945695424347 0  -7.00003964901512 5.999897306920564 0  -6.000039186461904 5.999860914860769 0  -5.00002096286657 5.999842343195239 0  -3.999975596898984 5.999872090350731 0  -2.999954960381094 5.9999340893134 0  -1.999963107076561 5.999999047927959 0  -0.9999834023635 6.000035146635631 0  -3.910553722875934e-06 6.000042433737241 0  0.999977685760826 6.000030841648603 0  1.999963683634489 5.99999871256217 0  2.999958443700083 5.999944426644074 0  3.999969112253166 5.999888200077974 0  5.000007618038142 5.999860521008543 0  6.000031392046294 5.999872533458365 0  7.000035707878959 5.999904417084694 0  8.000022740636719 5.999949105592616 0  9 6 0  -9 8 0  -8.000073443716099 7.999893094749519 0  -7.000122733238368 7.999793908871537 0  -6.00012448266199 7.999712924692346 0  -5.000058706197128 7.999667413845714 0  -3.999970901410461 7.999804463680406 0  -2.999987213891 7.999965444200702 0  -2.000020280593529 8.0000438048751 0  -1.000023153715818 8.000052621940714 0  -3.563301803207809e-06 8.000055170390439 0  1.000011138395205 8.000063037084235 0  2.000005204753325 8.000030548571658 0  2.9999672584654 7.999975230786583 0  3.999954464336734 7.999837961704872 0  5.000040364564804 7.999683042320374 0  6.000120253629692 7.999725683672472 0  7.000123755355058 7.999802488319411 0  8.000074987342714 7.999897346820546 0  9 8 0  -9 10 0  -8.000219129863321 9.999809670625824 0  -7.000395907318347 9.999617787681585 0  -6.000479814122539 9.999423179170227 0  -5.00040050422115 9.999225578077388 0  -4.000261196889034 9.999668313335876 0  -3.000284258194099 10.00004891453288 0  -2.000227928096351 9.99998300128264 0  -1.000105593661573 9.999961851969326 0  -1.559320500722253e-05 9.999956695035854 0  1.000073606046542 9.9999571287902 0  2.000192246378909 9.999954888921406 0  3.000296795051347 10.00009127115008 0  4.00028382499004 9.999732460834428 0  5.000441296335547 9.999258921164277 0  6.00051452184672 9.999442290638955 0  7.000420791866894 9.999628405498335 0  8.000232052660158 9.999814448176437 0  9 10 0  -9 12 0  -8.000533914324185 11.99973257635681 0  -7.001040055760734 11.99945276380799 0  -6.001487028730606 11.99914574402871 0  -5.00183589200684 11.99879084845375 0  -4.001764573588567 11.99959865571821 0  -3.001829271169541 12.00039843998622 0  -2.001258409200956 12.00030127841964 0  -1.000622936385153 12.00024842448231 0  3.709845690374459e-05 12.00023764390653 0  1.000703884710052 12.00027056445513 0  2.001362459242537 12.00035685487318 0  3.001983206048662 12.00052075736159 0  4.001915016208404 11.99965962374692 0  5.001960270684017 11.99879139369136 0  6.001575910668187 11.99914816872901 0  7.001097514559002 11.99945476655618 0  8.000562157416544 11.99973360904286 0  9 12 0  -9 14 0  -8.000959147070409 13.99970516857531 0  -7.001919848234819 13.99939679536285 0  -6.002884920375823 13.99906014289197 0  -5.00386044322679 13.99867812872273 0  -4.003870421086104 13.99962314407554 0  -3.003876552169939 14.00058011930624 0  -2.002548546773611 14.00044256586439 0  -1.001239061721978 14.00036691641142 0  6.293017424934264e-05 14.00034398348861 0  1.001367944814302 14.00037075972323 0  2.002685762826825 14.0004487164798 0  3.004024106584192 14.0005821034341 0  4.004034699803973 13.99962607830441 0  5.004040421634222 13.9986760120317 0  6.003011904514691 13.99905525903823 0  7.002001180503491 13.99939244983622 0  8.000998901900367 13.99970274067431 0  9 14 0  -9 16 0  -8.001377284996268 15.9997320152196 0  -7.002780710083014 15.99945412854385 0  -6.004238680734955 15.99915626604453 0  -5.005784235433385 15.99882817147955 0  -4.005839111993923 15.99963563274747 0  -3.005787554259699 16.00043882975315 0  -2.003766873511223 16.00033694130898 0  -1.001826212223898 16.00027510906038 0  7.670372975094655e-05 16.00025199794604 0  1.001981840453346 16.00026673581239 0  2.003929183794591 16.00031935903656 0  3.005961281119418 16.00041061023778 0  4.006019481641221 15.99960142816018 0  5.005968611442817 15.99879162882494 0  6.004374123607526 15.99913091658824 0  7.002869488584405 15.99943797255933 0  8.001421199702246 15.99972412439749 0  9 16 0  -9 18 0  -8.001689932718199 17.99979849242251 0  -7.003421730709522 17.99959145675335 0  -6.005239436528284 17.99937346534997 0  -5.007191429558293 17.99913931580844 0  -4.00727439411159 17.99963874458293 0  -3.007194707807363 18.00013753348684 0  -2.004668028739121 18.00007166966187 0  -1.002263744562224 18.00002901679021 0  8.153692196746562e-05 18.00000920894907 0  1.002428137431822 18.00001174947034 0  2.004836293244676 18.00003604381019 0  3.007369101020854 18.00008128032007 0  4.007453592536752 17.9995829930415 0  5.007373125189188 17.99908617904141 0  6.005373959563028 17.99933572068723 0  7.003510546694548 17.99956724667226 0  8.001734075930752 17.99978666208769 0  9 18 0  -9 20 0  -8.00183426017488 19.99988706767581 0  -7.003717420645053 19.99977263029888 0  -6.00570024928482 19.99965534703358 0  -5.00783724953348 19.99953420052748 0  -4.007931970450491 19.99963904127333 0  -3.007838680338979 19.99974317919064 0  -2.005082881375559 19.99971398045698 0  -1.00246682534867 19.99969198468037 0  8.102535838047223e-05 19.99967746472209 0  1.002629617452242 19.99967017135867 0  2.005247861901733 19.99966935153016 0  3.008007197861857 19.99967370315136 0  4.008102298336888 19.99957381938281 0  5.008008455364918 19.99947494953517 0  6.005827728044015 19.99961264914165 0  7.003801955123956 19.99974499286061 0  8.001876389927386 19.99987349688132 0  8.999999999992731 19.99999999999313 0  -9 22 0  -8.001782192296266 21.99998164671847 0  -7.003612748225285 21.99996518354308 0  -6.005541548170997 21.99995268474803 0  -5.007621494870494 21.99994659667389 0  -4.007714264474445 21.99963549877198 0  -3.007622410504041 21.99932362146888 0  -2.004942081873908 21.99932762180696 0  -1.002398650231319 21.99932520471045 0  7.754120151244557e-05 21.9993169692929 0  1.002554037032422 21.99930284211184 0  2.005098358124276 21.99928208985368 0  3.007780091891238 21.99925330689668 0  4.007871513437412 21.9995708886755 0  5.007778011535074 21.9998890550344 0  6.005658740851195 21.99991099182215 0  7.003690768317271 21.99993808073505 0  8.001821164616469 21.99996830292629 0  9 22 0  -9 24 0  -8.001535854348187 24.00006866584938 0  -7.003113373679616 24.00014187821921 0  -6.004775389243089 24.00022437261475 0  -5.00656700651992 24.00032127413335 0  -4.006647019005619 23.99962840067819 0  -3.006568397370299 23.9989348293485 0  -2.00425691524815 23.99896680481205 0  -1.00206300101584 23.99898157694558 0  7.291507579960309e-05 23.998979918288 0  1.002208801089379 23.99896188098753 0  2.004402606717732 23.99892679952563 0  3.006713849232553 23.99887328574371 0  4.006790237578502 23.99957260522235 0  5.006708329902774 24.0002722662333 0  6.004881739581601 24.00018870707693 0  7.00318442757981 24.00011862061166 0  8.001571420800545 24.0000571931788 0  9 24 0  -9 26 0  -8.001121930020989 26.00013751548733 0  -7.002274174705851 26.00028145401216 0  -6.003487871636159 26.00043842995293 0  -5.004795659289909 26.00061545302961 0  -4.004854695203428 25.99961828024935 0  -3.004798200427707 25.99862056940939 0  -2.003104573715953 25.99867451208351 0  -1.001496764837899 25.99870338140957 0  6.854140078174471e-05 25.99870808678562 0  1.001633569414909 25.99868879296982 0  2.003240525374157 25.99864492071799 0  3.004932671417982 25.99857514503492 0  4.004985640415277 25.99957747610795 0  5.004923869819493 26.0005799631103 0  6.003584817979139 26.00041253244943 0  7.002339164271422 26.00026453176428 0  8.001154524931556 26.00012915701011 0  9 26 0  -9 28 0  -8.000585670184538 28.00018069201966 0  -7.001187202909244 28.00036889098298 0  -6.001820924868619 28.00057229763381 0  -5.002503888045259 28.00079900609436 0  -4.002536340058153 27.99960610708706 0  -3.002507831739582 27.99841292900669 0  -2.001611998631738 27.99848220670999 0  -1.000761893348572 27.99852153073968 0  6.541609489174247e-05 27.99853193487992 0  1.000892284086301 27.99851369286821 0  2.001741044216409 27.99846631903226 0  3.002634566691007 27.99838856708277 0  4.002658770638326 27.99958442712938 0  5.002623090575801 28.00078035711739 0  6.001911406808452 28.00055866042512 0  7.001248023256039 28.00035996544756 0  8.000616224379442 28.000
[...]
<PointData  Vectors="f_44-0"> 
<DataArray  type="Float64"  Name="f_44-0"  NumberOfComponents="3" format="ascii">0.0000000000000000e+00 0.0000000000000000e+00 0.0000000000000000e+00  7.8325122135900720e-08 -3.8476964786216978e+00 0.0000000000000000e+00  1.6153767012444901e-07 -3.8090813212541086e+00 0.0000000000000000e+00  3.3937108305219731e-07 -3.4414312509722951e+00 0.0000000000000000e+00  0.0000000000000000e+00 0.0000000000000000e+00 0.0000000000000000e+00  0.0000000000000000e+00 0.0000000000000000e+00 0.0000000000000000e+00  0.0000000000000000e+00 0.0000000000000000e+00 0.0000000000000000e+00  0.0000000000000000e+00 0.0000000000000000e+00 0.0000000000000000e+00  0.0000000000000000e+00 0.0000000000000000e+00 0.0000000000000000e+00  0.0000000000000000e+00 0.0000000000000000e+00 0.0000000000000000e+00  0.0000000000000000e+00 0.0000000000000000e+00 0.0000000000000000e+00  0.0000000000000000e+00 0.0000000000000000e+00 0.0000000000000000e+00  0.0000000000000000e+00 0.0000000000000000e+00 0.0000000000000000e+00  0.0000000000000000e+00 0.0000000000000000e+00 0.0000000000000000e+00  0.0000000000000000e+00 0.0000000000000000e+00 0.0000000000000000e+00  8.0886087142111732e-08 -3.8600237920794589e+00 0.0000000000000000e+00  1.6320474469495685e-07 -3.8205277898285273e+00 0.0000000000000000e+00  3.4002358151438730e-07 -3.4504341860701802e+00 0.0000000000000000e+00  0.0000000000000000e+00 0.0000000000000000e+00 0.0000000000000000e+00  0.0000000000000000e+00 0.0000000000000000e+00 0.0000000000000000e+00  -4.6822410223881592e-03 -3.5899358207990120e+00 0.0000000000000000e+00  3.7804074819648933e-03 -3.8045128163726960e+00 0.0000000000000000e+00  2.5371120989517312e-02 -3.6007535832175583e+00 0.0000000000000000e+00  1.4471280431321305e-03 -4.4721799753728121e-04 0.0000000000000000e+00  1.5895325519429172e-03 -9.5598962011461132e-04 0.0000000000000000e+00  8.6947165239452330e-04 -5.5425939292744154e-04 0.0000000000000000e+00  6.5538006154314233e-04 1.0122809523983017e-04 0.0000000000000000e+00  3.7331359607407308e-04 4.5882791156515542e-04 0.0000000000000000e+00  1.3826371599952051e-04 3.7396945041546842e-04 0.0000000000000000e+00  -1.0329960636397783e-04 -3.5528255081869235e-06 0.0000000000000000e+00  -2.8477269725103922e-04 -4.9489698542897387e-04 0.0000000000000000e+00  -5.4674118340021320e-04 -1.2406217228400857e-03 0.0000000000000000e+00  -9.2641287847933555e-04 -1.4151935116030676e-03 0.0000000000000000e+00  -1.5747305988897742e-03 -2.4069813106340661e-03 0.0000000000000000e+00  -4.8564130387960232e-03 -3.6005931972973393e+00 0.0000000000000000e+00  4.0277565831971836e-03 -3.8158845884970307e+00 0.0000000000000000e+00  2.5495469327299292e-02 -3.6117415649231632e+00 0.0000000000000000e+00  0.0000000000000000e+00 0.0000000000000000e+00 0.0000000000000000e+00  0.0000000000000000e+00 0.0000000000000000e+00 0.0000000000000000e+00  1.1576200386907104e-02 -3.6001529369732217e+00 0.0000000000000000e+00  -3.7656517364500815e-03 -3.7913173803710194e+00 0.0000000000000000e+00  1.1495632784003390e-02 -3.6027790047502770e+00 0.0000000000000000e+00  -1.3638919392712757e-03 -1.9728282250689498e-03 0.0000000000000000e+00  -1.1579812878118886e-04 2.3534823327441660e-05 0.0000000000000000e+00  1.7371294163732963e-04 1.6178415102086412e-03 0.0000000000000000e+00  8.4223564299760006e-05 1.7170311699429230e-03 0.0000000000000000e+00  -3.4273254368377026e-04 7.6311169237803004e-04 0.0000000000000000e+00  -4.9743723418695129e-04 -1.1495007695232768e-04 0.0000000000000000e+00  -3.7212011447152377e-04 -2.5364070283990842e-04 0.0000000000000000e+00  3.2630047687217978e-04 -8.3018282105573431e-04 0.0000000000000000e+00  4.5962330796715800e-04 -1.4729436741389059e-03 0.0000000000000000e+00  1.6185627339217654e-04 -7.8558222924583363e-04 0.0000000000000000e+00  -2.3248414586112806e-04 5.1421517023058875e-05 0.0000000000000000e+00  1.1785665349227542e-02 -3.6106040686114382e+00 0.0000000000000000e+00  -3.7630157443347945e-03 -3.8019617689206249e+00 0.0000000000000000e+00  1.1031695166548998e-02 -3.6133418876691548e+00 0.0000000000000000e+00  0.0000000000000000e+00 0.0000000000000000e+00 0.0000000000000000e+00  0.0000000000000000e+00 0.0000000000000000e+00 0.0000000000000000e+00  1.1079419787621281e-02 -3.6024965955853969e+00 0.0000000000000000e+00  -3.2513625794314714e-03 -3.7924800176464846e+00 0.0000000000000000e+00  1.1232148662903948e-02 -3.6015499684301324e+00 0.0000000000000000e+00  -3.0119095109138044e-03 1.7842713256983442e-03 0.0000000000000000e+00  -1.5294023271280651e-03 4.4316130140865462e-03 0.0000000000000000e+00  -1.4241830745580389e-03 3.6573166662565017e-03 0.0000000000000000e+00  -2.3656727420083450e-03 -7.4657625461102192e-04 0.0000000000000000e+00  -1.4699691471030106e-03 -2.7302903496230894e-03 0.0000000000000000e+00  -1.9031086229778714e-04 -1.3874895131046456e-03 0.0000000000000000e+00  7.9925492840391614e-04 -6.3940757395291258e-04 0.0000000000000000e+00  5.9933353522642987e-04 -4.5431959293381171e-04 0.0000000000000000e+00  1.1331980422851734e-03 -6.6282697401818898e-05 0.0000000000000000e+00  1.8662204209890679e-03 -2.3600610983855390e-03 0.0000000000000000e+00  4.4176004301553219e-04 -4.7724523102381268e-03 0.0000000000000000e+00  1.3253590695891939e-02 -3.6118518252550587e+00 0.0000000000000000e+00  -2.4407808434289179e-03 -3.8014882214597532e+00 0.0000000000000000e+00  1.0720323830184864e-02 -3.6105659268013879e+00 0.0000000000000000e+00  0.0000000000000000e+00 0.0000000000000000e+00 0.0000000000000000e+00  0.0000000000000000e+00 0.0000000000000000e+00 0.0000000000000000e+00  1.0329800112721201e-02 -3.6025405827490129e+00 0.0000000000000000e+00  -4.3907360703620661e-03 -3.7939319753077458e+00 0.0000000000000000e+00  9.1804189074736978e-03 -3.6062740360126671e+00 0.0000000000000000e+00  -1.1438773757412085e-02 -2.4104624773959608e-03 0.0000000000000000e+00  -1.3267478202307682e-02 2.4958482828525510e-03 0.0000000000000000e+00  -4.5119652747822323e-03 -4.9005607901944168e-03 0.0000000000000000e+00  -4.2540458163018097e-03 -9.6167377611350840e-03 0.0000000000000000e+00  4.8394798752524970e-04 -5.1567647695891592e-03 0.0000000000000000e+00  1.9580515161359761e-03 -4.3935313731869128e-03 0.0000000000000000e+00  4.6816627303611254e-03 -8.8850546234300349e-03 0.0000000000000000e+00  4.3980824867851636e-03 -1.5072009301102633e-03 0.0000000000000000e+00  1.6527720836629657e-02 -5.6959967521257619e-03 0.0000000000000000e+00  1.7824879713248341e-02 -1.4440216957378151e-02 0.0000000000000000e+00  1.1162141712353033e-02 -1.3428268211659324e-02 0.0000000000000000e+00  1.4514579465545168e-02 -3.6103190868183965e+00 0.0000000000000000e+00  -8.8568286134621814e-04 -3.7992963327941047e+00 0.0000000000000000e+00  1.1402483203927017e-02 -3.6079162988409474e+00 0.0000000000000000e+00  0.0000000000000000e+00 0.0000000000000000e+00 0.0000000000000000e+00  0.0000000000000000e+00 0.0000000000000000e+00 0.0000000000000000e+00  8.8103990082393606e-03 -3.5983258070004487e+00 0.0000000000000000e+00  -9.4824466470003217e-03 -3.7886415694650042e+00 0.0000000000000000e+00  -3.3417219009322435e-03 -3.5977345929260456e+00 0.0000000000000000e+00  -5.1037882406422513e-02 1.8035517922802845e-02 0.0000000000000000e+00  -3.9432880448075455e-02 1.2460235332081427e-02 0.0000000000000000e+00  -2.1420746179647510e-02 7.7975309141835513e-03 0.0000000000000000e+00  1.3037413235430547e-03 -1.7593475268778577e-02 0.0000000000000000e+00  1.5882461405369521e-03 -6.9672996455707676e-03 0.0000000000000000e+00  4.5217755894577686e-03 -5.0067280758971317e-03 0.0000000000000000e+00  7.1331773473230740e-03 -5.3446428464526616e-03 0.0000000000000000e+00  6.6145568511626861e-03 -5.9378074913823244e-03 0.0000000000000000e+00  3.3947488432403937e-02 -9.5734852334692245e-03 0.0000000000000000e+00  4.1448434593426273e-02 -1.8164697177122189e-02 0.0000000000000000e+00  4.3304498948989682e-02 -2.2057642576836751e-02 0.0000000000000000e+00  2.1350245694257027e-02 -3.6067073979356681e+00 0.0000000000000000e+00  1.0727558299284074e-03 -3.7949821654136797e+00 0.0000000000000000e+00  1.1957025294358088e-02 -3.6036689648121309e+00 0.0000000000000000e+00  0.0000000000000000e+00 0.0000000000000000e+00 0.0000000000000000e+00  0.0000000000000000e+00 0.0000000000000000e+00 0.0000000000000000e+00  8.4876183503704121e-03 -3.5915887377188693e+00 0.0000000000000000e+00  -1.0130793381916515e-02 -3.7816121693652076e+00 0.0000000000000000e+00  1.6331667895572196e-04 -3.5925664590804183e+00 0.0000000000000000e+00  -2.8584270224055477e-02 1.0352192010174123e-02 0.0000000000000000e+00  -3.7402200499670184e-02 1.4352062597000894e-02 0.0000000000000000e+00  -5.0342788181291363e-02 2.9528795939491669e-02 0.0000000000000000e+00  -1.9551270039408191e-02 -2.5165012103592732e-02 0.0000000000000000e+00  -6.8408429277204332e-03 -2.5624249601427684e-02 0.0000000000000000e+00  2.5058000724786198e-03 -2.3723779673072654e-02 0.0000000000000000e+00  9.1900764482084583e-03 -2.3719075666683888e-02 0.0000000000000000e+00  9.7304421664520021e-03 -2.5196145830597524e-02 0.0000000000000000e+00  2.0613812643636525e-02 -1.3676241726446907e-02 0.0000000000000000e+00  3.2666122255944036e-02 -1.2119972156372134e-02 0.0000000000000000e+00  4.2754094420801088e-02 -4.1545414796396191e-03 0.0000000000000000e+00  2.4334061091260063e-02 -3.6024935560675404e+00 0.0000000000000000e+00  7.9147151784376805e-04 -3.7895441350974846e+00 0.0000000000000000e+00  1.1819513233944754e-02 -3.5981147954525792e+00 0.0000000000000000e+00  0.0000000000000000e+00 0.0000000000000000e+00 0.0000000000000000e+00  0.0000000000000000e+00 0.0000000000000000e+00 0.0000000000000000e+00  8.3966992420254384e-03 -3.5830392326056613e+00 0.0000000000000000e+00  -1.0795149212907347e-02 -3.7732190972740769e+00 0.0000000000000000e+00  -8.9359816504089122e-04 -3.5840629174918477e+00 0.0000000000000000e+00  -3.7129832709883581e-03 -1.7249781335819767e-03 0.0000000000000000e+00  -9.3427666463395398e-03 -1.6239731948083070e-03 0.0000000000000000e+00  -1.2388619426551227e-02 -8.6673826658420234e-03 0.0000000000000000e+00  -8.4143359825903565e-03 -3.7797616075240729e-02 0.0000000000000000e+00  -3.0419754800717316e-03 -3.8564078753560015e-02 0.0000000000000000e+00  2.3789256215825550e-03 -3.7753655026253725e-02 0.0000000000000000e+00  8.0155098943776055e-03 -3.7328796734020515e-02 0.0000000000000000e+00  1.2266447343475194e-02 -3.5509211272299890e-02 0.0000000000000000e+00  5.2734031410522067e-03 6.9435678617387646e-04 0.0000000000000000e+00  1.0728753058283419e-02 5.2546072800875197e-04 0.0000000000000000e+00  1.3713414452832012e-02 -2.3376579275689699e-03 0.0000000000000000e+00  2.1259856628468903e-02 -3.5948581374761654e+00 0.0000000000000000e+00  1.6864966638125407e-03 -3.7836665090311414e+00 0.0000000000000000e+00  1.1923488308078550e-02 -3.5913800831811864e+00 0.0000000000000000e+00  0.0000000000000000e+00 0.0000000000000000e+00 0.0000000000000000e+00  0.0000000000000000e+00 0.0000000000000000e+00 0.0000000000000000e+00  8.1681185171418938e-03 -3.5724839371321084e+00 0.0000000000000000e+00  -1.1834590808439073e-02 -3.7630546338659676e+00 0.0000000000000000e+00  -1.9110981299087562e-03 -3.5735262419521749e+00 0.0000000000000000e+00  8.3524549745099368e-03 -1.1958382555456963e-02 0.0000000000000000e+00  3.8966121468871932e-03 -1.1701975350584686e-02 0.0000000000000000e+00  -2.3404617482442120e-04 -1.0891364228966929e-02 0.0000000000000000e+00  -1.0442405968927489e-02 -4.8712661748552877e-02 0.0000000000000000e+00  -4.4218556181980480e-03 -5.0211485418412062e-02 0.0000000000000000e+00  2.4341450752942235e-03 -5.0787298102756166e-02 0.0000000000000000e+00  9.1833899063019607e-03 -5.0573803089272139e-02 0.0000000000000000e+00  1.3521250524403934e-02 -4.8856644432053883e-02 0.0000000000000000e+00  -7.3655581938908490e-03 9.2985423241277714e-03 0.0000000000000000e+00  -3.4101638472095975e-03 8.0373356932785626e-03 0.0000000000000000e+00  4.7011307080427366e-04 8.5194779161129330e-03 0.0000000000000000e+00  2.1090132870374523e-02 -3.5860118661331546e+00 0.0000000000000000e+00  2.8767015128000912e-03 -3.7755354605003455e+00 0.0000000000000000e+00  1.2356942659287112e-02 -3.5825303992520992e+00 0.0000000000000000e+00  0.0000000000000000e+00 0.0000000000000000e+00 0.0000000000000000e+00  0.0000000000000000e+00 0.0000000000000000e+00 0.0000000000000000e+00  7.8146398327074915e-03 -3.5598298740233920e+00 0.0000000000000000e+00  -1.2993477571737803e-02 -3.7509153654570810e+00 0.0000000000000000e+00  -3.5999824779840571e-03 -3.5603128428520634e+00 0.0000000000000000e+00  1.3983871946640934e-02 -1.7319590422676123e-02 0.0000000000000000e+00  1.1402518625365612e-02 -1.6507744733755502e-02 0.0000000000000000e+00  9.9940251030798677e-03 -1.6514884880851812e-02 0.0000000000000000e+00  -1.1643546667091356e-02 -6.6313718218868167e-02 0.0000000000000000e+00  -5.8673021142077713e-03 -6.5494903591532441e-02 0.0000000000000000e+00  2.0048429919130991e-03 -6.5927640926606135e-02 0.0000000000000000e+00  9.6850930503723474e-03 -6.5951669454537717e-02 0.0000000000000000e+00  1.4578253590719244e-02 -6.5604111174780905e-02 0.0000000000000000e+00  -1.2479816883416551e-02 1.4427755007839311e-02 0.0000000000000000e+00  -9.8903059550306954e-03 1.3593546434122236e-02 0.0000000000000000e+00  -8.4012860044589063e-03 1.3415530089617347e-02 0.0000000000000000e+00  2.2753698133682568e-02 -3.5730986707346948e+00 0.0000000000000000e+00  4.9144218545434364e-03 -3.7644643795403043e+00 0.0000000000000000e+00  1.3124703568860628e-02 -3.5707560265379512e+00 0.0000000000000000e+00  0.0000000000000000e+00 0.0000000000000000e+00 0.0000000000000000e+00  0.0000000000000000e+00 0.0000000000000000e+00 0.0000000000000000e+00  7.5115711024652549e-03 -3.5455829513209118e+00 0.0000000000000000e+00  -1.3765068403380494e-02 -3.7372363989032906e+00 0.0000000000000000e+00  -4.7803751469480274e-03 -3.5450295352429060e+00 0.0000000000000000e+00  1.5407821571380388e-02 -1.9008692715704142e-02 0.0000000000000000e+00  1.4418880818622399e-02 -1.8831334670462527e-02 0.0000000000000000e+00  1.4388356021361135e-02 -1.9303404006503776e-02 0.0000000000000000e+00  -1.2419367636767117e-02 -8.5601753892369473e-02 0.0000000000000000e+00  -6.8359595296183457e-03 -8.2662576084768374e-02 0.0000000000000000e+00  1.4801453878597801e-03 -8.2859168934156541e-02 0.0000000000000000e+00  9.6639869070964755e-03 -8.3080792665606348e-02 0.0000000000000000e+00  1.5199433551685911e-02 -8.4541852102533288e-02 0.0000000000000000e+00  -1.3322167260390354e-02 1.6011082461412918e-02 0.0000000000000000e+00  -1.2384156418960634e-02 1.5614377832399728e-02 0.0000000000000000e+00  -1.2484292309563187e-02 1.5794636417715471e-02 0.0000000000000000e+00  2.3970269057502276e-02 -3.5570226547078323e+00 0.0000000000000000e+00  6.3649754891702262e-03 -3.7504631138321609e+00 0.0000000000000000e+00  1.3740815752590349e-02 -3.5563095858950735e+00 0.0000000000000000e+00  4.5121574838428177e-10 1.4083374351441349e-11 0.0000000000000000e+00  0.0000000000000000e+00 0.0000000000000000e+00 0.0000000000000000e+00  7.4288756597806448e-03 -3.5308401601046548e+00 0.0000000000000000e+00  -1.3717495927224438e-02 -3.7230875829129269e+00 0.0000000000000000e+00  -4.7225733959780801e-03 -3.5290430200696186e+00 0.0000000000000000e+00  1.4063250684933432e-02 -1.7955058451700111e-02 0.0000000000000000e+00  1.4390098623514723e-02 -1.8545852972094753e-02 0.0000000000000000e+00  1.5649749572966862e-02 -1.9627641244489354e-02 0.0000000000000000e+00  -1.2065061392471243e-02 -1.0521651052423803e-01 0.0000000000000000e+00  -7.0242403515267176e-03 -1.0016287012727848e-01 0.0000000000000000e+00  1.0073943955063299e-03 -1.0007451588805842e-01 0.0000000000000000e+00  8.9538536853575827e-03 -1.0049164604235408e-01 0.0000000000000000e+00  1.4684452935349528e-02 -1.0400924701286235e-01 0.0000000000000000e+00  -1.1517226957685712e-02 1.4769509139312971e-02 0.0000000000000000e+00  -1.1908798111420989e-02 1.5178912415069357e-02 0.0000000000000000e+00  -1.3227575623166198e-02 1.6095705908192492e-02 0.0000000000000000e+00  2.4394018067863631e-02 -3.5395544137343973e+00 0.0000000000000000e+00  6.9418986852887781e-03 -3.7349173508223288e+00 0.0000000000000000e+00  1.4048412964675070e-02 -3.5404390126109289e+00 0.0000000000000000e+00  0.0000000000000000e+00 0.0000000000000000e+00 0.0000000000000000e+00  0.0000000000000000e+00 0.0000000000000000e+00 0.0000000000000000e+00  7.6582837005025415e-03 -3.5170294050846524e+00 0.0000000000000000e+00  -1.2669203628218613e-02 -3.7098584131829497e+00 0.0000000000000000e+00  -3.1400134781893623e-03 -3.5140228086929750e+00 0.0000000000000000e+00  1.1052813503869521e-02 -1.4789203931332746e-02 0.0000000000000000e+00  1.2475497620317123e-02 -1.6185926686285369e-02 0.0000000000000000e+00  1.4667440890345839e-02 -1.7958802672571800e-02 0.0000000000000000e+00  -1.0331772930130437e-02 -1.2314071022645443e-01 0.0000000000000000e+00  -6.2902610733761369e-03 -1.1625002808146750e-01 0.0000000000000000e+00  6.3628014370631359e-04 -1.1588416356737008e-01 0.0000000000000000e+00  7.5216266327332703e-03 -1.1648321541353947e-01 0.0000000000000000e+00  1.2849041360050599e-02 -1.2200693686186471e-01 0.0000000000000000e+00  -8.1352226076834393e-03 1.1454336848162000e-02 0.0000000000000000e+00  -9.6173620004699738e-03 1.2713347505932546e-02 0.0000000000000000e+00  -1.1873930325220269e-02 1.4342711421533772e-02 0.0000000000000000e+00  2.3581139333761530e-02 -3.5224374896924515e+00 0.0000000000000000e+00  6.4659739736302691e-03 -3.7194317140370767e+00 0.0000000000000000e+00  1.3976785759157888e-02 -3.5247617009375221e+00 0.0000000000000000e+00  0.0000000000000000e+00 0.0000000000000000e+00 0.0000000000000000e+00  0.0000000000000000e+00 0.0000000000000000e+00 0.0000000000000000e+00  8.2161998284629549e-03 -3.5056195969926676e+00 0.0000000000000000e+00  -1.0645401382611592e-02 -3.6989693619346831e+00 0.0000000000000000e+00  -6.7376868774568589e-05 -3.5016194299716106e+00 0.0000000000000000e+00  7.1499348380000107e-03 -1.0175416443772119e-02 0.0000000000000000e+00  9.4112157307919830e-03 -1.2267832037753928e-02 0.0000000000000000e+00  1.2217506805130493e-02 -1.4611571060249939e-02 0.0000000000000000e+00  -7.3389225710211066e-03 -1.3746627772596604e-01 0.0000000000000000e+00  -4.7191528373801070e-03 -1.2921858274587297e-01 0.0000000000000000e+00  3.7269943733342348e-04 -1.2862657753526105e-01 0.0000000000000000e+00  5.4521620156234678e-03 -1.2936975716593127e-01 0.0000000000000000e+00  9.7749440120316524e-03 -1.3659673450580959e-01 0.0000000000000000e+00  -3.9548379570919128e-03 6.7201830490257689e-03 0.0000000000000000e+00  -6.2725373270024866e-03 8.7173350495116323e-03 0.0000000000000000e+00  -9.1401798646760096e-03 1.0962804183026744e-02 0.0000000000000000e+00  2.1460318215836240e-02 -3.5074943325138515e+00 0.0000000000000000e+00  4.9362946598376506e-03 -3.7056375813444156e+00 0.0000000000000000e+00  1.3521518873844115e-02 -3.5109306476767665e+00 0.0000000000000000e+00  0.0000000000000000e+00 0.0000000000000000e+00 0.0000000000000000e+00  0.0000000000000000e+00 0.0000000000000000e+00 0.0000000000000000e+00  9.0609605899193771e-03 -3.4978833845892594e+00 0.0000000000000000e+00  -7.8264096300359100e-03 -3.6916425599468039e+00 0.0000000000000000e+00  4.2160360206812538e-03 -3.4932313960905725e+00 0.0000000000000000e+00  2.8669051469548536e-03 -4.7321219454202158e-03 0.0000000000000000e+00  5.6986007603219207e-03 -7.2996857785026636e-03 0.0000000000000000e+00  8.8092534736331184e-03 -9.9941779408583929e-03 0.0000000000000000e+00  -3.3920713135075558e-03 -1.4667058209417475e-01 0.0000000000000000e+00  -2.4998081249145024e-03 -1.3767793239374979e-01 0.0000000000000000e+00  2.1455627541787115e-04 -1.3693125623920338e-01 0.0000000000000000e+00  2.9281709791741657e-03 -1.3775768871975411e-01 0.0000000000000000e+00  5.7533601765812651e-03 -1.4619009981758188e-01 0.0000000000000000e+00  5.0082672812476242e-04 1.1886313134741909e-03 0.0000000000000000e+00  -2.3814544548707716e-03 3.7080264120985936e-03 0.0000000000000000e