<?xml version="1.0"?>
<VTKFile type="UnstructuredGrid"  version="0.1"  >
<UnstructuredGrid>
<Piece  NumberOfPoints="589" NumberOfCells="1080">
<Points>
<DataArray  type="Float64"  NumberOfComponents="3"  format="ascii">-9 0 0  -8 0 0  -7 0 0  -6 0 0  -5 0 0  -4 0 0  -3 0 0  -2 0 0  -1 0 0  0 0 0  1 0 0  2 0 0  3 0 0  4 0 0  5 0 0  6 0 0  7 0 0  8 0 0  9 0 0  -9 2 0  -8.000007501658938 1.99998888282922 0  -7.000015737237342 1.999979119170715 0  -6.00002641964456 1.999971806092092 0  -5.0000434540332 1.999967418706469 0  -4.000025944162806 1.999975711218258 0  -3.000007904953237 1.999983482695272 0  -1.999999042211047 1.999990736559247 0  -0.9999974256790225 1.999996468790133 0  -3.364026279368783e-07 1.999998991254699 0  0.9999964163189287 1.999997279568956 0  1.999996896829117 1.999991755846825 0  3.000003835272836 1.999984982320045 0  4.000018073029755 1.999977751049671 0  5.000038642205952 1.999974864972531 0  6.00002328938269 1.999975913050309 0  7.000013835836246 1.999981420781272 0  8.000006602280012 1.999989942841163 0  9 2 0  -9 4 0  -8.000012067470166 3.999972352310986 0  -7.000021687185397 3.99994843654645 0  -6.000027431275708 3.999931909696764 0  -5.000029600878722 3.999926262194513 0  -4.000004217921677 3.999930125154173 0  -2.999987118080007 3.999951880974584 0  -1.999982490735779 3.999980183396593 0  -0.999988687163193 4.000002945434594 0  -7.833119344784703e-07 4.000012147902751 0  0.9999868506441141 4.000005062359231 0  1.999979741807362 3.999985836180511 0  2.999983414900242 3.999959809500975 0  3.999999540810115 3.999933683658308 0  5.000024067628909 3.999925080037665 0  6.000022981491964 3.999933987942772 0  7.000018791524579 3.999950784989649 0  8.000010679163502 3.999973746057814 0  9 4 0  -9 6 0  -8.000026423425577 5.999940897507599 0  -7.000043139571075 5.999888201413843 0  -6.000042740885859 5.999848498933392 0  -5.000023102725762 5.999828107299591 0  -3.999973755297166 5.999860330235093 0  -2.999951220560809 5.999927562635804 0  -1.999959874762611 5.99999801616709 0  -0.9999817090757585 6.000037185824921 0  -3.790554117699488e-06 6.000045090100945 0  0.9999764022122715 6.000032465837559 0  1.999961375393243 5.99999750943693 0  2.999955860472004 5.999938461011388 0  3.999967619309508 5.999877275147926 0  5.000009613792909 5.999847093741039 0  6.000035088888523 5.999860509164265 0  7.000039435878263 5.999895496441991 0  8.000025021915359 5.999944380945306 0  9 6 0  -9 8 0  -8.000079598753215 7.99988383279387 0  -7.000133045341731 7.999776008688168 0  -6.000135004986989 7.999687861404245 0  -5.000063789279274 7.999638076441754 0  -3.999968508078795 7.999786609526001 0  -2.999985951595148 7.999961091182194 0  -2.000021570729643 8.000046094412092 0  -1.000024490789997 8.000055764272235 0  -3.095272135891044e-06 8.000058572195551 0  1.000012987186033 8.000067085715934 0  2.000006651706186 8.000031737670769 0  2.999965593173463 7.999971510109196 0  3.999951898866844 7.999822310803216 0  5.000045349016323 7.99965395886143 0  6.000131696759696 7.999700766069671 0  7.000135110332104 7.999784636655742 0  8.0000817847204 7.999888090980479 0  9 8 0  -9 10 0  -8.000237303717372 9.999793459369771 0  -7.000428812141656 9.999585207206122 0  -6.000519889879525 9.999373937134399 0  -5.000434424161313 9.99915930701887 0  -4.000283483293845 9.999638634799094 0  -3.000308009155779 10.00005074912713 0  -2.000246540040613 9.999979723677599 0  -1.000113751335196 9.99995693185021 0  -1.593152330772046e-05 9.999951373294385 0  1.000081059475534 9.999951810051829 0  2.000210020669359 9.999949267533642 0  3.000323811235182 10.00009698891381 0  4.000309964009663 9.999707339974389 0  5.000480950463266 9.999193219476611 0  6.000559872745262 9.999392899459471 0  7.000457635242307 9.999595514562342 0  8.000252314455341 9.999798028290055 0  9 10 0  -9 12 0  -8.000577823926646 11.99971006797704 0  -7.001125704393102 11.99940670657729 0  -6.001609796757604 11.99907385250224 0  -5.001988114379135 11.99868910272522 0  -4.001911110271186 11.99956275896474 0  -3.001980855175121 12.00042769880045 0  -2.00136079158672 12.00032278891924 0  -1.000671330314768 12.00026586972273 0  4.441838009611797e-05 12.00025450494104 0  1.000767343990196 12.00029046977722 0  2.001481382874072 12.00038427350518 0  3.00215458337557 12.00056225396842 0  4.002080714266 11.99962785453475 0  5.00212974558633 11.99868573799174 0  6.001711859774485 11.9990735911544 0  7.001192078850218 11.99940698155514 0  8.000610565258434 11.99971024744921 0  9 12 0  -9 14 0  -8.001037362936831 13.99968054767116 0  -7.002076540527114 13.9993464424307 0  -6.00312073550257 13.99898173876933 0  -5.004176706570414 13.99856795655369 0  -4.004187773959707 13.99958875793256 0  -3.004194052358368 14.00062249491201 0  -2.002754058675527 14.00047417501293 0  -1.001334684572327 14.00039284033478 0  7.623693912860796e-05 14.00036854803728 0  1.001490278753847 14.00039805614985 0  2.002918197222073 14.00048297895549 0  3.004368518937918 14.00062794246113 0  4.004380066327967 13.99959102406245 0  5.004386193308151 13.99856056732591 0  6.003269608957001 13.99897272872749 0  7.002172388181292 13.99933930215892 0  8.001084359001394 13.99967671465405 0  9 14 0  -9 16 0  -8.001488613502373 15.9997097411342 0  -7.003005611117001 15.99940878811109 0  -6.00458184019438 15.99908626420047 0  -5.006253174236419 15.99873110067625 0  -4.00631274025808 15.99960177323058 0  -3.006256665671232 16.0004678245092 0  -2.004067513337116 16.00035844715465 0  -1.001965397547178 16.00029230739966 0  9.561752711714879e-05 16.00026799073196 0  1.002158945800562 16.00028457442087 0  2.004268015378146 16.00034211195106 0  3.006469037398454 16.00044141270521 0  4.006532139990806 15.99956393676743 0  5.006476965059634 15.9986857943839 0  6.004746832386358 15.99905462197938 0  7.003114070063109 15.9993885492416 0  8.001542361763045 15.99969983926254 0  9 16 0  -9 18 0  -8.001825240982944 17.999781737773 0  -7.003695811533695 17.99955752428288 0  -6.005659399664215 17.99932152053172 0  -5.007768384490495 17.99906813607509 0  -4.007858184842748 17.99960475072469 0  -3.007771805308308 18.00014067449646 0  -2.00503623403035 18.0000704465667 0  -1.002433304765577 18.00002518500592 0  0.0001056829103499743 18.000004526838 0  1.002646095846309 18.00000795651649 0  2.005253208945424 18.00003484212006 0  3.007995399869946 18.00008430563476 0  4.008086915621828 17.99954373801976 0  5.007999765784223 17.99900477130066 0  6.005831070017124 17.99927637459161 0  7.003809335232417 17.99952850401618 0  8.001881721400528 17.99976753867403 0  9 18 0  -9 20 0  -8.001979545196678 19.99987752228962 0  -7.004011953285481 19.99975344706985 0  -6.006152102684573 19.99962635715637 0  -5.008458901583327 19.99949518925157 0  -4.008561270846196 19.99960480141604 0  -3.008460336736015 19.99971364460518 0  -2.005478229284996 19.99968307786862 0  -1.002647265904863 19.9996601631492 0  0.0001099710969336532 19.99964522391712 0  1.002868098850062 19.99963801008854 0  2.005701697902725 19.99963771821803 0  3.008688087088117 19.99964294245433 0  4.008791013232301 19.99953370446 0  5.008689455482254 19.99942555509252 0  6.006323863198631 19.99957609429903 0  7.004125900105175 19.99972087192678 0  8.00203634889159 19.99986151444827 0  8.999999999989795 19.9999999999934 0  -9 22 0  -8.001921469523024 21.99997967726244 0  -7.003895154175036 21.99996142355019 0  -6.005974901378035 21.99994750849287 0  -5.00821781056707 21.99994060684029 0  -4.008317978557637 21.99960076992363 0  -3.008218766334223 21.99926006906777 0  -2.005319538703018 21.99926526518723 0  -1.002568156170978 21.99926341921266 0  0.000110691319867625 21.99925519926217 0  1.002790037529979 21.99924054151323 0  2.005542894628822 21.99921866425303 0  3.008444510270535 21.99918805462158 0  4.008543374116108 21.99953048831583 0  5.008442205007502 21.99987353004863 0  6.006142678314141 21.99989884583887 0  7.004006743080124 21.99992976048982 0  8.001977179826346 21.99996407930472 0  9 22 0  -9 24 0  -8.001653580211809 24.00007355644072 0  -7.003352087404855 24.00015204380134 0  -6.005141696511629 24.00024059752462 0  -5.00707103356676 24.00034477552832 0  -4.007157390430378 23.99959290659569 0  -3.007072634980648 23.99884025401529 0  -2.004573241592706 23.99887546861848 0  -1.002200647571635 23.99889202753084 0  0.0001095071130964167 23.99889078058429 0  1.002419863991222 23.9988717946894 0  2.004793049575367 23.99883436090943 0  3.007293385245104 23.99877698927622 0  4.007375914825983 23.99953228595896 0  5.007287245300359 24.00028791799997 0  6.005303812051097 24.00019917780412 0  7.003460125234272 24.00012501355045 0  8.001707581471162 24.00006021658562 0  9 24 0  -9 26 0  -8.001204906183229 26.00014773111709 0  -7.002442446831759 26.00030240908269 0  -6.003746143044695 26.00047118691489 0  -5.005151120008347 26.00066164457533 0  -4.00521484560576 25.99958175116227 0  -3.005154117377966 25.99850124669663 0  -2.00332336205494 25.99855993793574 0  -1.001585028572431 25.99859151759291 0  0.0001076694464709985 25.9985969714079 0  1.001800348447747 25.99857648337749 0  2.003538610454424 25.998529436435 0  3.005369200511409 25.99845441052941 0  4.005426355996176 25.99953743552675 0  5.005359371445782 26.00062059466892 0  6.003902665756102 26.00044120500897 0  7.002546938354786 26.0002828046937 0  8.001257186780505 26.00013804379322 0  9 26 0  -9 28 0  -8.000624435894375 28.00019414053863 0  -7.001265888442838 28.00039638766217 0  -6.001941877663904 28.00061505630346 0  -5.00267069392723 28.00085888458057 0  -4.002705766851737 27.99956835051186 0  -3.002675340490554 27.998277492758 0  -2.001707356247028 27.99835249694053 0  -1.000788480484035 27.99839514771177 0  0.0001060659348069849 27.99840655855621 0  1.001000443659502 27.99838702668529 0  2.001918796139878 27.99833603326389 0  3.002885851634902 27.99825224236196 0  4.00291189215281 27.9995447746586 0  5.002873003361334 28.00083735677492 0  6.002094210499794 28.0005992992917 0  7.0013677153831 28.00038606761212 0  8.000675424892448 28.000
[...]
<PointData  Vectors="f_44-0"> 
<DataArray  type="Float64"  Name="f_44-0"  NumberOfComponents="3" format="ascii">0.0000000000000000e+00 0.0000000000000000e+00 0.0000000000000000e+00  1.3075275406397424e-07 -4.8398785002640743e+00 0.0000000000000000e+00  2.0287444461493524e-07 -4.8016755709924519e+00 0.0000000000000000e+00  4.1803150166927783e-07 -4.3845857204413372e+00 0.0000000000000000e+00  0.0000000000000000e+00 0.0000000000000000e+00 0.0000000000000000e+00  0.0000000000000000e+00 0.0000000000000000e+00 0.0000000000000000e+00  0.0000000000000000e+00 0.0000000000000000e+00 0.0000000000000000e+00  0.0000000000000000e+00 0.0000000000000000e+00 0.0000000000000000e+00  0.0000000000000000e+00 0.0000000000000000e+00 0.0000000000000000e+00  0.0000000000000000e+00 0.0000000000000000e+00 0.0000000000000000e+00  0.0000000000000000e+00 0.0000000000000000e+00 0.0000000000000000e+00  0.0000000000000000e+00 0.0000000000000000e+00 0.0000000000000000e+00  0.0000000000000000e+00 0.0000000000000000e+00 0.0000000000000000e+00  0.0000000000000000e+00 0.0000000000000000e+00 0.0000000000000000e+00  0.0000000000000000e+00 0.0000000000000000e+00 0.0000000000000000e+00  1.3451773226814699e-07 -4.8542941470939178e+00 0.0000000000000000e+00  2.0514050344590617e-07 -4.8151698235131084e+00 0.0000000000000000e+00  4.1980689115253078e-07 -4.3956170372499930e+00 0.0000000000000000e+00  0.0000000000000000e+00 0.0000000000000000e+00 0.0000000000000000e+00  0.0000000000000000e+00 0.0000000000000000e+00 0.0000000000000000e+00  -9.2316123484995818e-03 -4.5495921972687778e+00 0.0000000000000000e+00  3.5757602701177445e-03 -4.7989907970719150e+00 0.0000000000000000e+00  2.9914764593717495e-02 -4.5612481302457795e+00 0.0000000000000000e+00  1.6526926154697547e-03 -4.4896287616735732e-04 0.0000000000000000e+00  1.7848714994540163e-03 -1.0157562947942548e-03 0.0000000000000000e+00  9.7443175644254683e-04 -5.9256530247112906e-04 0.0000000000000000e+00  7.2887794728607386e-04 1.1063085787382381e-04 0.0000000000000000e+00  4.1723040066759718e-04 4.9113043360635514e-04 0.0000000000000000e+00  1.6173771149258245e-04 3.9605394717225718e-04 0.0000000000000000e+00  -1.0077898824850772e-04 -1.2174934126631653e-05 0.0000000000000000e+00  -3.0294803801390532e-04 -5.4038630637880331e-04 0.0000000000000000e+00  -6.0034243145240898e-04 -1.3438358481600160e-03 0.0000000000000000e+00  -1.0347700669335810e-03 -1.5276746202325098e-03 0.0000000000000000e+00  -1.7727139533150174e-03 -2.6288207551109898e-03 0.0000000000000000e+00  -9.5891994535704100e-03 -4.5623411273646290e+00 0.0000000000000000e+00  3.7968604686647329e-03 -4.8124317834570016e+00 0.0000000000000000e+00  2.9952786464444315e-02 -4.5743860946543364e+00 0.0000000000000000e+00  0.0000000000000000e+00 0.0000000000000000e+00 0.0000000000000000e+00  0.0000000000000000e+00 0.0000000000000000e+00 0.0000000000000000e+00  1.3274690201967471e-02 -4.5597904589463640e+00 0.0000000000000000e+00  -5.1912673816947265e-03 -4.7827002607234883e+00 0.0000000000000000e+00  1.3276014249371563e-02 -4.5629844351897848e+00 0.0000000000000000e+00  -1.4324576837271752e-03 -2.0484833635962935e-03 0.0000000000000000e+00  -1.1045196722926318e-04 1.0779380049026169e-04 0.0000000000000000e+00  1.8137867480605283e-04 1.8114502079447990e-03 0.0000000000000000e+00  7.9454789032524663e-05 1.8829914531855812e-03 0.0000000000000000e+00  -3.7754649394180123e-04 8.2396027591083779e-04 0.0000000000000000e+00  -5.3344343578076877e-04 -1.3770917199221671e-04 0.0000000000000000e+00  -3.8599421416323512e-04 -2.8083757359067217e-04 0.0000000000000000e+00  3.7596881935990730e-04 -8.8366294103425802e-04 0.0000000000000000e+00  5.1330906462483553e-04 -1.5495735586139160e-03 0.0000000000000000e+00  1.7099387763862202e-04 -7.7349095867650086e-04 0.0000000000000000e+00  -2.7984903496573781e-04 1.5935879137578051e-04 0.0000000000000000e+00  1.3356467108901661e-02 -4.5723080638611311e+00 0.0000000000000000e+00  -5.3153041732116029e-03 -4.7953466732197034e+00 0.0000000000000000e+00  1.2576121716365971e-02 -4.5755700389046261e+00 0.0000000000000000e+00  0.0000000000000000e+00 0.0000000000000000e+00 0.0000000000000000e+00  0.0000000000000000e+00 0.0000000000000000e+00 0.0000000000000000e+00  1.3118683085619209e-02 -4.5627157670635956e+00 0.0000000000000000e+00  -3.8598959194801928e-03 -4.7836057882308012e+00 0.0000000000000000e+00  1.3078133580387121e-02 -4.5608983009071400e+00 0.0000000000000000e+00  -3.2139228815980872e-03 2.1269858511683433e-03 0.0000000000000000e+00  -1.6730577485138233e-03 4.9539532928804331e-03 0.0000000000000000e+00  -1.5863685507879514e-03 4.0388215349711444e-03 0.0000000000000000e+00  -2.5945490684324973e-03 -8.0164900268145205e-04 0.0000000000000000e+00  -1.6015879171396958e-03 -2.9900411987092384e-03 0.0000000000000000e+00  -1.9340384893568497e-04 -1.5465485687394265e-03 0.0000000000000000e+00  8.9785069771028143e-04 -7.2225601714529495e-04 0.0000000000000000e+00  6.9496789883594849e-04 -4.8477620856091541e-04 0.0000000000000000e+00  1.2775775763668442e-03 -7.0124926886807563e-07 0.0000000000000000e+00  2.0620781748586967e-03 -2.4167193593581993e-03 0.0000000000000000e+00  4.7127612937348075e-04 -4.9993258945605730e-03 0.0000000000000000e+00  1.5329443315795499e-02 -4.5739346208867495e+00 0.0000000000000000e+00  -3.2854113821271132e-03 -4.7945581402676583e+00 0.0000000000000000e+00  1.2112815180407400e-02 -4.5723051646606461e+00 0.0000000000000000e+00  0.0000000000000000e+00 0.0000000000000000e+00 0.0000000000000000e+00  0.0000000000000000e+00 0.0000000000000000e+00 0.0000000000000000e+00  1.2427681633750057e-02 -4.5632337932089833e+00 0.0000000000000000e+00  -4.6704248250378881e-03 -4.7859054685798696e+00 0.0000000000000000e+00  1.1686255843604316e-02 -4.5678497475819864e+00 0.0000000000000000e+00  -1.2318493226078364e-02 -2.1742972037564578e-03 0.0000000000000000e+00  -1.4381770599031753e-02 2.9402291518160757e-03 0.0000000000000000e+00  -4.9010186408952753e-03 -5.2561822582358362e-03 0.0000000000000000e+00  -4.5678558607951496e-03 -1.0442625441671656e-02 0.0000000000000000e+00  5.5728234131747524e-04 -5.6399994395084710e-03 0.0000000000000000e+00  2.1322322825016319e-03 -4.8205012364824617e-03 0.0000000000000000e+00  5.0632578065883714e-03 -9.6951173873806949e-03 0.0000000000000000e+00  4.7727411505398554e-03 -1.6729925243771713e-03 0.0000000000000000e+00  1.7960314748775640e-02 -6.1373222421994564e-03 0.0000000000000000e+00  1.9377449926716871e-02 -1.5436417441405332e-02 0.0000000000000000e+00  1.2051528314277618e-02 -1.4153169329324044e-02 0.0000000000000000e+00  1.6408317785252872e-02 -4.5723222124161254e+00 0.0000000000000000e+00  -1.5277814688389370e-03 -4.7922593492955894e+00 0.0000000000000000e+00  1.2894427140353437e-02 -4.5695182689531189e+00 0.0000000000000000e+00  0.0000000000000000e+00 0.0000000000000000e+00 0.0000000000000000e+00  0.0000000000000000e+00 0.0000000000000000e+00 0.0000000000000000e+00  1.0941406212734456e-02 -4.5590487972467297e+00 0.0000000000000000e+00  -1.0065765745606610e-02 -4.7800900023776292e+00 0.0000000000000000e+00  -1.9571135326189918e-03 -4.5570208123230520e+00 0.0000000000000000e+00  -5.4553476178546514e-02 2.0422075435125909e-02 0.0000000000000000e+00  -4.2216550672757244e-02 1.3856786561481252e-02 0.0000000000000000e+00  -2.2783627920060050e-02 8.3498002430962923e-03 0.0000000000000000e+00  1.6731774393976026e-03 -1.8988784402284433e-02 0.0000000000000000e+00  1.8503671845177174e-03 -7.4846007068684285e-03 0.0000000000000000e+00  4.9183510741371075e-03 -5.3611754778621831e-03 0.0000000000000000e+00  7.6430248186190094e-03 -5.7329570747761110e-03 0.0000000000000000e+00  6.9510374688983604e-03 -6.3796345769943676e-03 0.0000000000000000e+00  3.6387229850302211e-02 -1.0468883594363449e-02 0.0000000000000000e+00  4.4517913191647676e-02 -1.9324607255874635e-02 0.0000000000000000e+00  4.6362877485013047e-02 -2.2980867600312017e-02 0.0000000000000000e+00  2.4156284896614533e-02 -4.5680749731216279e+00 0.0000000000000000e+00  2.3794843194125306e-04 -4.7878419545205997e+00 0.0000000000000000e+00  1.3283219525831650e-02 -4.5653817271031372e+00 0.0000000000000000e+00  0.0000000000000000e+00 0.0000000000000000e+00 0.0000000000000000e+00  0.0000000000000000e+00 0.0000000000000000e+00 0.0000000000000000e+00  1.0955408286416323e-02 -4.5530646686764547e+00 0.0000000000000000e+00  -9.8544644836561952e-03 -4.7736463144640915e+00 0.0000000000000000e+00  2.7001014755403197e-03 -4.5526532990057564e+00 0.0000000000000000e+00  -2.8471351054388125e-02 1.2613486378209958e-02 0.0000000000000000e+00  -3.8093391129929655e-02 1.5953788725270826e-02 0.0000000000000000e+00  -5.1980149516992029e-02 3.1375313498154443e-02 0.0000000000000000e+00  -2.0255163423879469e-02 -2.6625149886666973e-02 0.0000000000000000e+00  -7.0073222252548086e-03 -2.6613863527166579e-02 0.0000000000000000e+00  2.6478411816815862e-03 -2.4435888462641768e-02 0.0000000000000000e+00  9.3785575566465319e-03 -2.4609123955055254e-02 0.0000000000000000e+00  9.1604590171161532e-03 -2.7184580214635694e-02 0.0000000000000000e+00  1.9868144053505281e-02 -1.5392037559960478e-02 0.0000000000000000e+00  3.3000116873779718e-02 -1.2683363839634572e-02 0.0000000000000000e+00  4.3869561198478103e-02 -3.0180364467448533e-03 0.0000000000000000e+00  2.6130289805716966e-02 -4.5646030353491769e+00 0.0000000000000000e+00  -1.0449257460501070e-03 -4.7834118069012499e+00 0.0000000000000000e+00  1.2707515469511599e-02 -4.5608630564257915e+00 0.0000000000000000e+00  0.0000000000000000e+00 0.0000000000000000e+00 0.0000000000000000e+00  0.0000000000000000e+00 0.0000000000000000e+00 0.0000000000000000e+00  1.1320065991041427e-02 -4.5464470812861375e+00 0.0000000000000000e+00  -9.4625623002562199e-03 -4.7670495960732922e+00 0.0000000000000000e+00  3.4313165084171645e-03 -4.5458624777956400e+00 0.0000000000000000e+00  8.2976060814722618e-04 -3.1252038686516907e-04 0.0000000000000000e+00  -5.2337020746639432e-03 -1.3414608433492724e-03 0.0000000000000000e+00  -8.5124860188487226e-03 -1.0111924680069875e-02 0.0000000000000000e+00  -4.9500937916976736e-03 -3.8333590532644492e-02 0.0000000000000000e+00  -1.3353555502996267e-03 -3.8221558074246598e-02 0.0000000000000000e+00  2.6991627809757708e-03 -3.7120756458058124e-02 0.0000000000000000e+00  7.1235511848907560e-03 -3.6685862648267155e-02 0.0000000000000000e+00  1.0210923317860599e-02 -3.5370185228913935e-02 0.0000000000000000e+00  8.7897566888650504e-04 1.0904407576624448e-04 0.0000000000000000e+00  6.7647788926574271e-03 1.0455589855539612e-03 0.0000000000000000e+00  9.9856859798561747e-03 -9.4137336825633885e-04 0.0000000000000000e+00  1.9955098610543540e-02 -4.5592797930847855e+00 0.0000000000000000e+00  -1.1727729980864296e-03 -4.7797043159251853e+00 0.0000000000000000e+00  1.2361063524471206e-02 -4.5564178768093289e+00 0.0000000000000000e+00  0.0000000000000000e+00 0.0000000000000000e+00 0.0000000000000000e+00  0.0000000000000000e+00 0.0000000000000000e+00 0.0000000000000000e+00  1.1520191704202645e-02 -4.5390132885900911e+00 0.0000000000000000e+00  -9.5709224498550082e-03 -4.7598776910360918e+00 0.0000000000000000e+00  4.0214402510331286e-03 -4.5386311130473773e+00 0.0000000000000000e+00  1.6117790104699398e-02 -1.1534493395264691e-02 0.0000000000000000e+00  1.1385584811316418e-02 -1.2221281763124706e-02 0.0000000000000000e+00  6.8777343164819083e-03 -1.2305413873155873e-02 0.0000000000000000e+00  -5.8485093403285232e-03 -4.4531211926924545e-02 0.0000000000000000e+00  -2.0628357877361379e-03 -4.6541109580867164e-02 0.0000000000000000e+00  2.7919618091306764e-03 -4.7024168086161854e-02 0.0000000000000000e+00  7.6432638746392568e-03 -4.6667342936968663e-02 0.0000000000000000e+00  9.6234371257351691e-03 -4.4988864328344001e-02 0.0000000000000000e+00  -1.5014692595875402e-02 9.6255102486017558e-03 0.0000000000000000e+00  -1.0816110259612644e-02 9.1917365806538052e-03 0.0000000000000000e+00  -6.5656816616347872e-03 1.0647321409537110e-02 0.0000000000000000e+00  1.7519993311677556e-02 -4.5541574547764787e+00 0.0000000000000000e+00  -1.1165116772171928e-03 -4.7748222120478001e+00 0.0000000000000000e+00  1.2423728410451270e-02 -4.5509813059176327e+00 0.0000000000000000e+00  0.0000000000000000e+00 0.0000000000000000e+00 0.0000000000000000e+00  0.0000000000000000e+00 0.0000000000000000e+00 0.0000000000000000e+00  1.1460032733856627e-02 -4.5303610934346459e+00 0.0000000000000000e+00  -1.0143947798867466e-02 -4.7515952213561983e+00 0.0000000000000000e+00  3.3856453760882951e-03 -4.5297801455495081e+00 0.0000000000000000e+00  2.3812567424821771e-02 -1.7670249441009176e-02 0.0000000000000000e+00  2.1141306086807057e-02 -1.7386305284532003e-02 0.0000000000000000e+00  1.9541640405439292e-02 -1.7987114328113129e-02 0.0000000000000000e+00  -5.9077293438067804e-03 -5.7409088991893967e-02 0.0000000000000000e+00  -3.0424143169231741e-03 -5.7488747350289346e-02 0.0000000000000000e+00  2.3268046727185840e-03 -5.7943240132871103e-02 0.0000000000000000e+00  7.5710476112199583e-03 -5.7616599168766339e-02 0.0000000000000000e+00  9.3895386472113672e-03 -5.6689132518568587e-02 0.0000000000000000e+00  -2.2105864379904840e-02 1.5554387129152194e-02 0.0000000000000000e+00  -1.9416643312625461e-02 1.5206476302922564e-02 0.0000000000000000e+00  -1.7719775802883860e-02 1.5565102597333616e-02 0.0000000000000000e+00  1.7860417095448975e-02 -4.5458091930660256e+00 0.0000000000000000e+00  3.0971787041727335e-04 -4.7676578351477659e+00 0.0000000000000000e+00  1.3017752286467997e-02 -4.5433000725411929e+00 0.0000000000000000e+00  0.0000000000000000e+00 0.0000000000000000e+00 0.0000000000000000e+00  0.0000000000000000e+00 0.0000000000000000e+00 0.0000000000000000e+00  1.1266985266342941e-02 -4.5205298879528577e+00 0.0000000000000000e+00  -1.0761830564166795e-02 -4.7421646315550428e+00 0.0000000000000000e+00  2.5941071330784094e-03 -4.5193551307250246e+00 0.0000000000000000e+00  2.6057721264853888e-02 -1.9934311845105999e-02 0.0000000000000000e+00  2.5117647560551744e-02 -1.9868568257331052e-02 0.0000000000000000e+00  2.4988320347857241e-02 -2.0501897426972636e-02 0.0000000000000000e+00  -6.3440205693333458e-03 -7.0803903681662728e-02 0.0000000000000000e+00  -3.8477296940567702e-03 -6.9616274807253145e-02 0.0000000000000000e+00  1.7294838877396504e-03 -6.9996753432360725e-02 0.0000000000000000e+00  7.2661089233289778e-03 -6.9654936926713443e-02 0.0000000000000000e+00  9.3994663185327301e-03 -6.9745640810528670e-02 0.0000000000000000e+00  -2.3664458139774944e-02 1.7731875027979984e-02 0.0000000000000000e+00  -2.2770961423612332e-02 1.7384842282478007e-02 0.0000000000000000e+00  -2.2775654715517537e-02 1.7658167711560768e-02 0.0000000000000000e+00  1.8695138515927249e-02 -4.5345565405389587e+00 0.0000000000000000e+00  1.6194628427950101e-03 -4.7577939682992101e+00 0.0000000000000000e+00  1.3665107907233989e-02 -4.5331773115844207e+00 0.0000000000000000e+00  1.6042098494493190e-11 2.8586553658553833e-10 0.0000000000000000e+00  0.0000000000000000e+00 0.0000000000000000e+00 0.0000000000000000e+00  1.1101301162589644e-02 -4.5101078033024571e+00 0.0000000000000000e+00  -1.0990366736545945e-02 -4.7321641419672851e+00 0.0000000000000000e+00  2.3775982701008313e-03 -4.5081578145670411e+00 0.0000000000000000e+00  2.4312383914617430e-02 -1.9259543865895942e-02 0.0000000000000000e+00  2.4785744210961420e-02 -1.9535228739803134e-02 0.0000000000000000e+00  2.6047058653110838e-02 -2.0337367882873773e-02 0.0000000000000000e+00  -6.2985833867181774e-03 -8.4406225227768958e-02 0.0000000000000000e+00  -4.1774444035028281e-03 -8.1910721233843103e-02 0.0000000000000000e+00  1.1935374239837059e-03 -8.2206830224463026e-02 0.0000000000000000e+00  6.5782878893742422e-03 -8.1856537038943189e-02 0.0000000000000000e+00  8.9462055902182896e-03 -8.3174765749911547e-02 0.0000000000000000e+00  -2.1361801484491953e-02 1.6869532462196846e-02 0.0000000000000000e+00  -2.1895457803534180e-02 1.6906844002738741e-02 0.0000000000000000e+00  -2.3213387963557975e-02 1.7489419607936953e-02 0.0000000000000000e+00  1.9688733888201814e-02 -4.5216054269263886e+00 0.0000000000000000e+00  2.5515049168559935e-03 -4.7461128074687791e+00 0.0000000000000000e+00  1.4208964979756013e-02 -4.5213714735594852e+00 0.0000000000000000e+00  0.0000000000000000e+00 0.0000000000000000e+00 0.0000000000000000e+00  0.0000000000000000e+00 0.0000000000000000e+00 0.0000000000000000e+00  1.1070138449377789e-02 -4.5000421404092883e+00 0.0000000000000000e+00  -1.0597312616191474e-02 -4.7225240540953290e+00 0.0000000000000000e+00  3.0896417785302543e-03 -4.4973232419693430e+00 0.0000000000000000e+00  1.9808837939229700e-02 -1.6267024707382859e-02 0.0000000000000000e+00  2.1444445460148464e-02 -1.6967288849499773e-02 0.0000000000000000e+00  2.3722504957908040e-02 -1.8069609636905834e-02 0.0000000000000000e+00  -5.4801159081172609e-03 -9.6806875268403411e-02 0.0000000000000000e+00  -3.8530819757022724e-03 -9.3206997854936677e-02 0.0000000000000000e+00  7.7019616828634472e-04 -9.3428852715114183e-02 0.0000000000000000e+00  5.4629268496698795e-03 -9.3099193481803164e-02 0.0000000000000000e+00  7.8142028799804714e-03 -9.5641098793657814e-02 0.0000000000000000e+00  -1.6402565013077273e-02 1.3724503678668350e-02 0.0000000000000000e+00  -1.8090166472535325e-02 1.4239945268751917e-02 0.0000000000000000e+00  -2.0429522238744547e-02 1.5152904293430910e-02 0.0000000000000000e+00  2.0240582260882666e-02 -4.5082015364759140e+00 0.0000000000000000e+00  2.8616486722465475e-03 -4.7337909577416122e+00 0.0000000000000000e+00  1.4549009944673985e-02 -4.5090451341443920e+00 0.0000000000000000e+00  0.0000000000000000e+00 0.0000000000000000e+00 0.0000000000000000e+00  0.0000000000000000e+00 0.0000000000000000e+00 0.0000000000000000e+00  1.1223100778126350e-02 -4.4914002313054660e+00 0.0000000000000000e+00  -9.5226234246373991e-03 -4.7142843023566989e+00 0.0000000000000000e+00  4.8161337440511291e-03 -4.4880553653075284e+00 0.0000000000000000e+00  1.3529298336849686e-02 -1.1626908985012745e-02 0.0000000000000000e+00  1.6040286418680296e-02 -1.2723437115683356e-02 0.0000000000000000e+00  1.9002236702502295e-02 -1.4087815952603881e-02 0.0000000000000000e+00  -3.8960782144508597e-03 -1.0669490332068439e-01 0.0000000000000000e+00  -2.9168696109781460e-03 -1.0230858175604247e-01 0.0000000000000000e+00  4.6822783691855864e-04 -1.0249251534763640e-01 0.0000000000000000e+00  3.9603449161041250e-03 -1.0220285535909798e-01 0.0000000000000000e+00  5.9867423294966155e-03 -1.0579918456890287e-01 0.0000000000000000e+00  -9.7800036922709721e-03 8.9598758679882862e-03 0.0000000000000000e+00  -1.2336636179418643e-02 9.9272305231241052e-03 0.0000000000000000e+00  -1.5354494432139071e-02 1.1161023414924216e-02 0.0000000000000000e+00  2.0079758851039756e-02 -4.4957649426076554e+00 0.0000000000000000e+00  2.4406779698187358e-03 -4.7221120948648228e+00 0.0000000000000000e+00  1.4630889422095119e-02 -4.4974830435009272e+00 0.0000000000000000e+00  0.0000000000000000e+00 0.0000000000000000e+00 0.0000000000000000e+00  0.0000000000000000e+00 0.0000000000000000e+00 0.0000000000000000e+00  1.1564369208653481e-02 -4.4851700078711625e+00 0.0000000000000000e+00  -7.8373328836685869e-03 -4.7083990128660895e+00 0.0000000000000000e+00  7.4361959078770561e-03 -4.4814331539436507e+00 0.0000000000000000e+00  6.2510481070640412e-03 -5.9723196320635944e-03 0.0000000000000000e+00  9.3428608410631754e-03 -7.3519481454638793e-03 0.0000000000000000e+00  1.2661985176392682e-02 -8.8665181283981744e-03 0.0000000000000000e+00  -1.6991943379223761e-03 -1.1302243614185804e-01 0.0000000000000000e+00  -1.4905834353875630e-03 -1.0823417836525046e-01 0.0000000000000000e+00  2.8632453060201807e-04 -1.0841459055343751e-01 0.0000000000000000e+00  2.1872044551344812e-03 -1.0817168006875733e-01 0.0000000000000000e+00  3.6129413754714063e-03 -1.1252856164555997e-01 0.0000000000000000e+00  -2.2867331730057235e-03 3.2131903695595838e-03 0.0000000000000000e+00  -5.4154756361051524e-03 4.5266122732806500e-03 0.0000000000000000e+00 