<?xml version="1.0"?>
<VTKFile type="UnstructuredGrid"  version="0.1"  >
<UnstructuredGrid>
<Piece  NumberOfPoints="589" NumberOfCells="1080">
<Points>
<DataArray  type="Float64"  NumberOfComponents="3"  format="ascii">-9 0 0  -8 0 0  -7 0 0  -6 0 0  -5 0 0  -4 0 0  -3 0 0  -2 0 0  -1 0 0  0 0 0  1 0 0  2 0 0  3 0 0  4 0 0  5 0 0  6 0 0  7 0 0  8 0 0  9 0 0  -9 2 0  -8.000006728249492 1.999989376133876 0  -7.000014131888587 1.999980104412075 0  -6.000023831097015 1.999973288151583 0  -5.000039555226651 1.999969427453521 0  -4.000022917533146 1.999976994936608 0  -3.000005837472132 1.999984412190954 0  -1.99999761394897 1.999991473824135 0  -0.9999964742705708 1.99999705161452 0  2.550406104244504e-07 1.999999462362291 0  0.9999967248404474 1.99999765941757 0  1.999996989132438 1.999992038051045 0  3.000003789456966 1.999985131688784 0  4.000018024309376 1.999977662592066 0  5.000038795343907 1.999974333599017 0  6.000023594208265 1.999975512856171 0  7.000014116098478 1.999981154200766 0  8.000006763372099 1.999989809620256 0  9 2 0  -9.000000000004983 4 0  -8.000010754808995 3.999973344344454 0  -7.000019081554529 3.999950387461244 0  -6.000023562447552 3.999934754318391 0  -5.000024502369261 3.999929903709587 0  -3.999999926365212 3.999933363529973 0  -2.999983515083201 3.999954580606611 0  -1.99997944610864 3.99998228674015 0  -0.9999860901140706 4.000004582921537 0  1.452404143515592e-06 4.000013468241266 0  0.9999887779431885 4.000006127114186 0  1.999981417011095 3.999986629303712 0  2.999984924952134 3.999960225439113 0  4.000001021474564 3.999933490419551 0  5.000025666679853 3.999923944524181 0  6.00002429614693 3.999933177856803 0  7.000019730453319 3.999950252881893 0  8.000011169010333 3.999973480202456 0  9 4 0  -9 6 0  -8.000024492792388 5.999942520764138 0  -7.000039414568506 5.999891378617807 0  -6.000037457629526 5.99985309334335 0  -5.000016513198919 5.999833930051947 0  -3.999968067789827 5.999865383253821 0  -2.999946102769578 5.999931492053661 0  -1.999954942411141 6.000000887298858 0  -0.9999768913141205 6.000039527626009 0  7.919570454544878e-07 6.000047169639773 0  0.9999806138110539 6.000034326770036 0  1.999965165738032 5.999998974527808 0  2.999959353901142 5.999939242138983 0  3.999971004501181 5.9998771273185 0  5.000013021104759 5.999845861227779 0  6.000037778685429 5.999859479055478 0  7.000041326828448 5.999894745809509 0  8.0000260034916 5.99994398414135 0  9 6 0  -9 8 0  -8.000076505022774 7.999886363886151 0  -7.000127256511628 7.999780958890647 0  -6.000127299083725 7.999694960959651 0  -5.000055248627548 7.999646782666296 0  -3.999961287782826 7.999792886634068 0  -2.999978255823129 7.999964769814718 0  -2.000013288548708 8.000048816140495 0  -1.000016299697475 8.000058740518238 0  4.540556985589379e-06 8.000061697721431 0  1.000019903409673 8.000070238017853 0  2.000012928580915 8.00003432981716 0  2.999971187860176 7.999973320685999 0  3.999956845118891 7.999822606824165 0  5.000050392280983 7.999652545503944 0  6.00013608685761 7.99969920808846 0  7.00013839502053 7.999783370516262 0  8.000083546422614 7.999887391686902 0  9 8 0  -9 10 0  -8.000231453695358 9.999797345166693 0  -7.000417850988875 9.999593008048194 0  -6.000505432105368 9.99938571041959 0  -5.000419299297444 9.999175135100479 0  -4.000270408432883 9.999646808637159 0  -3.000294119793609 10.00005259385611 0  -2.000233573037502 9.999983731339022 0  -1.000102862454711 9.999961628941897 0  -6.219947590881427e-06 9.999956213645181 0  1.000089944490649 9.999956506206805 0  2.00021850872834 9.99995346715782 0  3.000330910260383 10.00010165534051 0  4.000315831116607 9.999708244626206 0  5.000488404310922 9.999189157798742 0  6.000567768226485 9.999389071375969 0  7.000463980964311 9.999592635046596 0  8.000255808929055 9.999796498118322 0  9 10 0  -9 12 0  -8.00056626801906 11.99971518925959 0  -7.001103121649245 11.99941712487156 0  -6.001577282990289 11.99908996397449 0  -5.00194740790128 11.99871163221275 0  -4.001871139075837 11.9995712494137 0  -3.001939047107675 12.00042214549151 0  -2.001318782057241 12.00032128501313 0  -1.000630496479459 12.00026776935035 0  8.299017734956018e-05 12.00025935865434 0  1.00080231784288 12.00029801959036 0  2.001510776688615 12.00039441734968 0  3.002175203863261 12.00057504956144 0  4.002099403185252 11.99962861170182 0  5.00215043768011 11.99867418338426 0  6.001731198679281 11.99906464420621 0  7.001206677241602 11.99940089218944 0  8.000618356430369 11.99970716720521 0  9 12 0  -9 14 0  -8.001017997650608 13.99968619895608 0  -7.002037972022462 13.99935788927222 0  -6.003063243160006 13.99899928326229 0  -5.004100581446284 13.99859208314719 0  -4.004111220952161 13.99959580498894 0  -3.004116507786089 14.0006120904586 0  -2.002677477246132 14.0004697381831 0  -1.001259529106504 14.00039373722452 0  0.000149056727532821 14.0003744483596 0  1.001559325839246 14.00040887438957 0  2.002981334073731 14.00049884689406 0  3.004422669006582 14.00064919944216 0  4.004432551766079 13.99959150214361 0  5.004440653913622 13.99854009060354 0  6.003313876418459 13.99895768554686 0  7.002203466848494 13.9993294111142 0  8.001100356789854 13.99967180824038 0  9 14 0  -9 16 0  -8.001460808844223 15.99971534367504 0  -7.002949966913764 15.99942005219451 0  -6.004498245927741 15.99910330033139 0  -5.006141359417932 15.9987540510392 0  -4.006200214426049 15.99960778143226 0  -3.006143743254808 16.0004568316772 0  -2.003954487154194 16.00035361319178 0  -1.001852247701551 16.00029352547872 0  0.0002084818337861138 16.00027528574782 0  1.002270681760726 16.00029814441958 0  2.004377290471764 16.00036235949517 0  3.006573937666311 16.00046897896395 0  4.006636036799181 15.99956400277865 0  5.006582108518428 15.9986582003677 0  6.004827887974811 15.99903463155025 0  7.003169118224658 15.99937554259442 0  8.001570183275831 15.99969342892348 0  9 16 0  -9 18 0  -8.001789154374718 17.99978705525642 0  -7.003623565082876 17.99956816374957 0  -6.005550827981956 17.99933748032126 0  -5.007623196028448 17.99908938607783 0  -4.007712287627414 17.99960998564038 0  -3.007625546236337 18.00012974834312 0  -2.004886837528513 18.00006565342738 0  -1.002280500869331 18.00002663655319 0  0.0002620082449669185 18.00001243777974 0  1.002805922067097 18.0000226838064 0  2.005416382113989 18.00005692311197 0  3.008161629479772 18.0001144980841 0  4.008253079836505 17.99954337512243 0  5.008166307250558 17.99897371809035 0  6.005956428880888 17.99925394334402 0  7.003893121171982 17.99951394468723 0  8.001923678537903 17.9997603746761 0  9 18 0  -9 20 0  -8.00193548618012 19.99988253832337 0  -7.003923791599045 19.99976347123983 0  -6.006019753251626 19.99964136550863 0  -5.008282245235161 19.99951512585 0  -4.008384027492897 19.99960932355057 0  -3.008282673919979 19.99970259534615 0  -2.005293570173558 19.99967789324543 0  -1.002455266455359 19.99966100486792 0  0.0003098765230201042 19.99965233913658 0  1.003076703326704 19.99965176327346 0  2.005920047730823 19.99965862216986 0  3.008917529340441 19.99967169002219 0  4.009021331937745 19.99953302905913 0  5.008919238993988 19.99939533217415 0  6.00649489886639 19.99955423325426 0  7.004239325035785 19.99970667179075 0  8.00209288599147 19.9998545246005 0  8.999999999984778 19.99999999999532 0  -9 22 0  -8.001869621484754 21.99998442644788 0  -7.003791431260024 21.99997093320249 0  -6.005819266909143 21.99996179689726 0  -5.008010250180494 21.99995969160398 0  -4.00810991716971 21.99960459219404 0  -3.008010248284368 21.9992484648562 0  -2.005101051171032 21.99925905227223 0  -1.002339236502646 21.9992626732652 0  0.0003510303698386574 21.99926007295032 0  1.003043304356917 21.99925128312295 0  2.00581115438491 21.99923563579358 0  3.008730460675755 21.99921174986028 0  4.008830952752668 21.99952967217064 0  5.008728492978408 21.99984807693922 0  6.006354655575496 21.99988036237339 0  7.004146792354287 21.99991772137257 0  8.002046830682156 21.99995814369846 0  9 22 0  -9 24 0  -8.001594047636004 24.00007799762805 0  -7.003232946492735 24.00016097231665 0  -6.004962825903549 24.00025410529902 0  -5.006832292332464 24.00036300121606 0  -4.006918098345381 23.99959598821655 0  -3.006832981273089 23.99882802463161 0  -2.004322856859099 23.99886792520783 0  -1.001938787298602 23.99888908489496 0  0.0003842619021227971 23.99889242263607 0  1.002709597373107 23.9988780814648 0  2.005100551425067 23.99884543199269 0  3.007622238253797 23.99879306701247 0  4.007706842029347 23.99953150151327 0  5.007616380750811 24.00027013868206 0  6.005547022288522 24.00018616932587 0  7.003620572123554 24.00011649547809 0  8.001787304727047 24.00005600365628 0  9 24 0  -9 26 0  -8.001137971365184 26.00015168400836 0  -7.002308373216845 26.00031039514929 0  -6.00354454347964 26.00048337009722 0  -5.004881456882142 26.00067827993517 0  -4.004944413066561 25.99958403206649 0  -3.004883581036042 25.99848901101997 0  -2.003044169827896 25.99855141058357 0  -1.001295944735062 25.99858643492199 0  0.0004085120998179341 25.99859513563518 0  1.002115449383557 25.99857775282783 0  2.00387114542634 25.99853371581651 0  3.00572310447442 25.99846164147298 0  4.005782437531229 25.99953682045418 0  5.005713460975374 26.00061199268848 0  6.004164302283106 26.00043478609346 0  7.002719529132855 26.00027854379724 0  8.001342939477523 26.00013591938893 0  9 26 0  -9 28 0  -8.000550886228718 28.00019728780089 0  -7.001118388070469 28.00040278254554 0  -6.001719635488749 28.00062490536855 0  -5.002372542297086 28.00087251246307 0  -4.002406483168234 27.99956979211322 0  -3.002376342067781 27.99826659706191 0  -2.001404399240752 27.99834402376969 0  -1.000479685729584 27.99838870244396 0  0.0004230029468189731 27.99840180071035 0  1.001328268601025 27.99838365051252 0  2.002260739786612 27.99833374867189 0  3.003245702003743 27.99825075536837 0  4.003273716799242 27.99954442371107 0  5.003232926998095 28.00083799574393 0  6.002360503100498 28.00059956166205 0  7.001543534830237 28.00038614485144 0  8.
[...]
<PointData  Vectors="f_44-0"> 
<DataArray  type="Float64"  Name="f_44-0"  NumberOfComponents="3" format="ascii">0.0000000000000000e+00 0.0000000000000000e+00 0.0000000000000000e+00  6.2115995858768405e-07 -1.0843133699030611e+01 0.0000000000000000e+00  5.2072140398574187e-07 -1.1006815803121123e+01 0.0000000000000000e+00  7.5118533187936149e-07 -1.0468028469306333e+01 0.0000000000000000e+00  0.0000000000000000e+00 0.0000000000000000e+00 0.0000000000000000e+00  0.0000000000000000e+00 0.0000000000000000e+00 0.0000000000000000e+00  0.0000000000000000e+00 0.0000000000000000e+00 0.0000000000000000e+00  0.0000000000000000e+00 0.0000000000000000e+00 0.0000000000000000e+00  0.0000000000000000e+00 0.0000000000000000e+00 0.0000000000000000e+00  0.0000000000000000e+00 0.0000000000000000e+00 0.0000000000000000e+00  0.0000000000000000e+00 0.0000000000000000e+00 0.0000000000000000e+00  0.0000000000000000e+00 0.0000000000000000e+00 0.0000000000000000e+00  0.0000000000000000e+00 0.0000000000000000e+00 0.0000000000000000e+00  0.0000000000000000e+00 0.0000000000000000e+00 0.0000000000000000e+00  0.0000000000000000e+00 0.0000000000000000e+00 0.0000000000000000e+00  6.3431037343956356e-07 -1.0854802324237106e+01 0.0000000000000000e+00  5.2818326229851456e-07 -1.1019057324819739e+01 0.0000000000000000e+00  7.5994469475906354e-07 -1.0479821595728724e+01 0.0000000000000000e+00  0.0000000000000000e+00 0.0000000000000000e+00 0.0000000000000000e+00  0.0000000000000000e+00 0.0000000000000000e+00 0.0000000000000000e+00  -5.7517386070979178e-02 -1.0612130773203603e+01 0.0000000000000000e+00  -9.9418807653549133e-03 -1.1027177738757679e+01 0.0000000000000000e+00  1.8525072631401664e-02 -1.0606730691048247e+01 0.0000000000000000e+00  1.9214056507515190e-03 -1.5638096185564712e-04 0.0000000000000000e+00  1.9092137780001089e-03 -7.3953658716640973e-04 0.0000000000000000e+00  1.0097181077653591e-03 -3.8783957207697760e-04 0.0000000000000000e+00  7.0866547071159539e-04 2.2406836942357591e-04 0.0000000000000000e+00  4.0722604160717724e-04 5.4296078729783423e-04 0.0000000000000000e+00  1.9640010927407764e-04 4.2207766658503140e-04 0.0000000000000000e+00  -2.1095755568570445e-05 2.8866215259829995e-05 0.0000000000000000e+00  -2.1335526453045882e-04 -4.5228572919668597e-04 0.0000000000000000e+00  -5.5644327505784249e-04 -1.2002441746216859e-03 0.0000000000000000e+00  -1.1012737113188184e-03 -1.3413350821399684e-03 0.0000000000000000e+00  -1.9840327164146517e-03 -2.4477462009470500e-03 0.0000000000000000e+00  -5.9155086408713385e-02 -1.0624935635952637e+01 0.0000000000000000e+00  -1.0368566771368628e-02 -1.1040078993073537e+01 0.0000000000000000e+00  1.7531017355711543e-02 -1.0619858691428670e+01 0.0000000000000000e+00  0.0000000000000000e+00 0.0000000000000000e+00 0.0000000000000000e+00  0.0000000000000000e+00 0.0000000000000000e+00 0.0000000000000000e+00  -1.6850135460513037e-03 -1.0605373079923540e+01 0.0000000000000000e+00  -2.3782754711727697e-02 -1.0999029248531958e+01 0.0000000000000000e+00  6.9148477452937490e-04 -1.0609134061258285e+01 0.0000000000000000e+00  -1.0972388532040783e-03 -1.3603099425299840e-03 0.0000000000000000e+00  -2.9609713973495597e-05 6.8555926340092149e-04 0.0000000000000000e+00  1.0816201719326919e-04 2.1425353349234320e-03 0.0000000000000000e+00  -3.6685485653399635e-05 1.9931651611628386e-03 0.0000000000000000e+00  -4.2890718440791674e-04 7.8413186845465084e-04 0.0000000000000000e+00  -4.8302359701348218e-04 -2.2734564193274188e-04 0.0000000000000000e+00  -2.4264366782267752e-04 -3.0642722598790847e-04 0.0000000000000000e+00  5.6096614638032852e-04 -7.5114776595875505e-04 0.0000000000000000e+00  6.6350875202672577e-04 -1.2073925121864227e-03 0.0000000000000000e+00  1.8910002068918240e-04 -2.3001999592356652e-04 0.0000000000000000e+00  -4.5601287385173842e-04 7.6887364369600719e-04 0.0000000000000000e+00  -2.7575533907619370e-03 -1.0616468699823153e+01 0.0000000000000000e+00  -2.4869240358349861e-02 -1.1008853708851783e+01 0.0000000000000000e+00  -1.2143406816525434e-03 -1.0618889268976059e+01 0.0000000000000000e+00  0.0000000000000000e+00 0.0000000000000000e+00 0.0000000000000000e+00  0.0000000000000000e+00 0.0000000000000000e+00 0.0000000000000000e+00  9.5026458187145325e-03 -1.0606179543712956e+01 0.0000000000000000e+00  -4.4801173247379983e-03 -1.0985618425066360e+01 0.0000000000000000e+00  3.6388598664207792e-03 -1.0592680366486105e+01 0.0000000000000000e+00  -2.8884986511497532e-03 3.4755050709995806e-03 0.0000000000000000e+00  -1.8025708109032658e-03 5.9439866413595593e-03 0.0000000000000000e+00  -1.9013265636721143e-03 4.5100040517801823e-03 0.0000000000000000e+00  -2.7988000707751507e-03 -7.5056245831068679e-04 0.0000000000000000e+00  -1.6535577394889390e-03 -3.2021912189456967e-03 0.0000000000000000e+00  -1.1262480182102670e-04 -1.8473230952368023e-03 0.0000000000000000e+00  1.1112718860761537e-03 -9.5124548396995827e-04 0.0000000000000000e+00  1.0349809577997408e-03 -4.4287347326894903e-04 0.0000000000000000e+00  1.6547193021870981e-03 5.1550974035908994e-04 0.0000000000000000e+00  2.3022227567605874e-03 -1.3657600858123480e-03 0.0000000000000000e+00  3.8097884958864116e-04 -3.6744759245663939e-03 0.0000000000000000e+00  1.0362781207246735e-02 -1.0616171231991068e+01 0.0000000000000000e+00  -7.4867979464397433e-03 -1.0999188021410097e+01 0.0000000000000000e+00  -1.5042917268135070e-03 -1.0610689512204370e+01 0.0000000000000000e+00  0.0000000000000000e+00 0.0000000000000000e+00 0.0000000000000000e+00  0.0000000000000000e+00 0.0000000000000000e+00 0.0000000000000000e+00  1.1156845400668873e-02 -1.0611954530730547e+01 0.0000000000000000e+00  1.3511524890821244e-03 -1.0996595477018058e+01 0.0000000000000000e+00  6.6077275625967087e-03 -1.0613951024664926e+01 0.0000000000000000e+00  -1.1382948754461358e-02 9.0622526014220940e-04 0.0000000000000000e+00  -1.4151507791812816e-02 4.6189444425851324e-03 0.0000000000000000e+00  -4.8518278397495273e-03 -4.7461898557402743e-03 0.0000000000000000e+00  -4.2219880873018822e-03 -1.0474811865679520e-02 0.0000000000000000e+00  7.6745779270557537e-04 -5.9419984941570239e-03 0.0000000000000000e+00  2.1271541077219733e-03 -5.1877070215514487e-03 0.0000000000000000e+00  4.8933563632646742e-03 -1.0103600911355948e-02 0.0000000000000000e+00  4.5956137379938936e-03 -1.8461675788010567e-03 0.0000000000000000e+00  1.7929306510296270e-02 -5.7992934265443065e-03 0.0000000000000000e+00  1.9460946203024323e-02 -1.3812268925228886e-02 0.0000000000000000e+00  1.1471285231889467e-02 -1.1177286343863170e-02 0.0000000000000000e+00  9.3329144520306554e-03 -1.0617317388052198e+01 0.0000000000000000e+00  9.9542201638826394e-04 -1.0996217735031232e+01 0.0000000000000000e+00  3.8923985215335078e-03 -1.0607010493421734e+01 0.0000000000000000e+00  0.0000000000000000e+00 0.0000000000000000e+00 0.0000000000000000e+00  0.0000000000000000e+00 0.0000000000000000e+00 0.0000000000000000e+00  1.1035004564401863e-02 -1.0609652020957546e+01 0.0000000000000000e+00  1.4187987413871962e-03 -1.0988068022107988e+01 0.0000000000000000e+00  6.6774612750388710e-03 -1.0592252391958963e+01 0.0000000000000000e+00  -4.9180365717697211e-02 2.6694432792997769e-02 0.0000000000000000e+00  -3.8498974411551895e-02 1.6393554121761172e-02 0.0000000000000000e+00  -1.9503404639214728e-02 7.6565453779968715e-03 0.0000000000000000e+00  3.6149402333038893e-03 -1.8167675222386662e-02 0.0000000000000000e+00  2.7206379043224925e-03 -6.8854432215480566e-03 0.0000000000000000e+00  4.9126421547880930e-03 -4.8124141006392349e-03 0.0000000000000000e+00  6.8198777150944257e-03 -5.2210808004374953e-03 0.0000000000000000e+00  5.0324026889563018e-03 -5.8176576561653785e-03 0.0000000000000000e+00  3.3574307665730913e-02 -1.1166203972930701e-02 0.0000000000000000e+00  4.1789224139784920e-02 -1.6882426236423088e-02 0.0000000000000000e+00  4.1989619257959819e-02 -1.6231782548514991e-02 0.0000000000000000e+00  1.5379909396480387e-02 -1.0608312802898221e+01 0.0000000000000000e+00  9.4427045292014657e-04 -1.0992008604259480e+01 0.0000000000000000e+00  5.7991490503844587e-03 -1.0605593468069486e+01 0.0000000000000000e+00  0.0000000000000000e+00 0.0000000000000000e+00 0.0000000000000000e+00  0.0000000000000000e+00 0.0000000000000000e+00 0.0000000000000000e+00  1.3814524595529384e-02 -1.0612583046314018e+01 0.0000000000000000e+00  8.2860370605302713e-03 -1.0989544162955175e+01 0.0000000000000000e+00  1.5971106825364238e-02 -1.0596135861264868e+01 0.0000000000000000e+00  -1.1126641170957401e-02 2.3020814472132754e-02 0.0000000000000000e+00  -2.1060351351018875e-02 1.9020736862662656e-02 0.0000000000000000e+00  -3.3922675329823002e-02 2.6785285351627695e-02 0.0000000000000000e+00  -1.3468407228730358e-02 -1.9514658084570861e-02 0.0000000000000000e+00  -4.7047072648230158e-03 -1.7432052796375615e-02 0.0000000000000000e+00  1.1409754519275525e-03 -1.4256828286006162e-02 0.0000000000000000e+00  3.8545852068632607e-03 -1.6122685657255515e-02 0.0000000000000000e+00  -2.3350957762721274e-03 -2.4703550965753749e-02 0.0000000000000000e+00  2.8977214650564697e-03 -2.0075076260899216e-02 0.0000000000000000e+00  1.6430943520399886e-02 -9.7690385004130832e-03 0.0000000000000000e+00  2.6755527669477679e-02 7.4204288563806849e-03 0.0000000000000000e+00  1.5116192345285358e-02 -1.0610994327322693e+01 0.0000000000000000e+00  -4.3874800174329301e-03 -1.0998060877097123e+01 0.0000000000000000e+00  3.8553920629695762e-03 -1.0611289885714736e+01 0.0000000000000000e+00  0.0000000000000000e+00 0.0000000000000000e+00 0.0000000000000000e+00  0.0000000000000000e+00 0.0000000000000000e+00 0.0000000000000000e+00  1.7488665679183904e-02 -1.0623826981371961e+01 0.0000000000000000e+00  1.6604394940465783e-02 -1.1000100611056862e+01 0.0000000000000000e+00  2.8466082735535171e-02 -1.0606693309677455e+01 0.0000000000000000e+00  3.5402652378535800e-02 1.1472401468186877e-02 0.0000000000000000e+00  2.9606279069901497e-02 2.0533496680671917e-03 0.0000000000000000e+00  2.6451709164161511e-02 -1.4936620357834385e-02 0.0000000000000000e+00  2.3772028876152273e-02 -1.6052391826220667e-02 0.0000000000000000e+00  1.2050728788069487e-02 -1.1046577892699048e-02 0.0000000000000000e+00  2.6261620838316968e-03 -8.3145139497532161e-03 0.0000000000000000e+00  -5.4158243070032974e-03 -9.1603276786996236e-03 0.0000000000000000e+00  -1.3824586863381309e-02 -1.2246419991223846e-02 0.0000000000000000e+00  -3.4063776178208972e-02 -5.3098146919340825e-03 0.0000000000000000e+00  -2.8337587496982498e-02 4.0854938114160116e-03 0.0000000000000000e+00  -2.5166605122827267e-02 1.0520731667380439e-02 0.0000000000000000e+00  -7.6979384148733844e-03 -1.0627749804552137e+01 0.0000000000000000e+00  -9.4796341107703259e-03 -1.1013451971371543e+01 0.0000000000000000e+00  8.7902088461995779e-04 -1.0626559312899181e+01 0.0000000000000000e+00  0.0000000000000000e+00 0.0000000000000000e+00 0.0000000000000000e+00  0.0000000000000000e+00 0.0000000000000000e+00 0.0000000000000000e+00  2.0795370430652091e-02 -1.0643306794040898e+01 0.0000000000000000e+00  2.3851571217882967e-02 -1.1019568566744944e+01 0.0000000000000000e+00  3.9813547929547825e-02 -1.0628046528928275e+01 0.0000000000000000e+00  6.7509334420581116e-02 -8.1301715210716212e-04 0.0000000000000000e+00  6.3383158324045896e-02 -8.6565742300451689e-03 0.0000000000000000e+00  5.8520961533040344e-02 -1.5885119304525519e-02 0.0000000000000000e+00  3.2619347681656086e-02 1.3893413021586526e-02 0.0000000000000000e+00  1.6609145951134316e-02 1.2342600339114752e-02 0.0000000000000000e+00  2.8590319321380939e-03 1.2791718991964395e-02 0.0000000000000000e+00  -1.0490866079777752e-02 1.1933870998948427e-02 0.0000000000000000e+00  -2.8357495094060488e-02 1.0329105654089423e-02 0.0000000000000000e+00  -6.7107491382601012e-02 5.7413087450994748e-03 0.0000000000000000e+00  -6.3407362152233970e-02 1.2450865883327817e-02 0.0000000000000000e+00  -5.8654589423129955e-02 2.1012947586107195e-02 0.0000000000000000e+00  -2.7632602545996504e-02 -1.0654810117091763e+01 0.0000000000000000e+00  -1.8587267424678786e-02 -1.1037092218086054e+01 0.0000000000000000e+00  -1.6510490581218070e-03 -1.0649451225089415e+01 0.0000000000000000e+00  0.0000000000000000e+00 0.0000000000000000e+00 0.0000000000000000e+00  0.0000000000000000e+00 0.0000000000000000e+00 0.0000000000000000e+00  2.2875002761088937e-02 -1.0668480423814813e+01 0.0000000000000000e+00  2.8260538099572682e-02 -1.1045019882054618e+01 0.0000000000000000e+00  4.6587428989195982e-02 -1.0655813470520933e+01 0.0000000000000000e+00  8.7617103092185539e-02 -9.6201675798451552e-03 0.0000000000000000e+00  8.5731843769284291e-02 -1.3770634966509916e-02 0.0000000000000000e+00  8.3443491239760137e-02 -1.8781043346462266e-02 0.0000000000000000e+00  4.1575163048142350e-02 4.1840586860051647e-02 0.0000000000000000e+00  1.9895662143089202e-02 4.1438011419080698e-02 0.0000000000000000e+00  2.3505730076896500e-03 4.2053069231486877e-02 0.0000000000000000e+00  -1.5070773297088107e-02 4.1654789648684361e-02 0.0000000000000000e+00  -3.8266557793579327e-02 4.1283177238014078e-02 0.0000000000000000e+00  -8.6768900923678963e-02 1.4699519515780492e-02 0.0000000000000000e+00  -8.4770421986602104e-02 1.8703140717343057e-02 0.0000000000000000e+00  -8.2278546225144147e-02 2.3386637300441018e-02 0.0000000000000000e+00  -3.9950638298128054e-02 -1.0685978408617485e+01 0.0000000000000000e+00  -2.5129649583283016e-02 -1.1064152306696108e+01 0.0000000000000000e+00  -3.8455690118816663e-03 -1.0675897564779232e+01 0.0000000000000000e+00  0.0000000000000000e+00 0.0000000000000000e+00 0.0000000000000000e+00  0.0000000000000000e+00 0.0000000000000000e+00 0.0000000000000000e+00  2.3396628895162100e-02 -1.0695880575672906e+01 0.0000000000000000e+00  2.9266420928590962e-02 -1.1072793174467236e+01 0.0000000000000000e+00  4.8226910750422583e-02 -1.0685912723302057e+01 0.0000000000000000e+00  9.5590113798039097e-02 -1.5391266384738733e-02 0.0000000000000000e+00  9.5499447874209983e-02 -1.6242089107906088e-02 0.0000000000000000e+00  9.4541294471163759e-02 -1.7776972617854395e-02 0.0000000000000000e+00  4.4480778732273164e-02 7.7896220733320531e-02 0.0000000000000000e+00  2.0874891633842839e-02 7.5876440317395391e-02 0.0000000000000000e+00  1.6391431404482809e-03 7.6067229571726458e-02 0.0000000000000000e+00  -1.7404489292228476e-02 7.6218686751614279e-02 0.0000000000000000e+00  -4.2752284208550012e-02 7.7492268745609619e-02 0.0000000000000000e+00  -9.4086010729284186e-02 2.0638014229725749e-02 0.0000000000000000e+00  -9.3951448597340129e-02 2.1088994900656282e-02 0.0000000000000000e+00  -9.3032427368277687e-02 2.2148471648030060e-02 0.0000000000000000e+00  -4.4839467539718125e-02 -1.0717629723478083e+01 0.0000000000000000e+00  -2.8150612005913681e-02 -1.1092021652454866e+01 0.0000000000000000e+00  -5.0037061718284136e-03 -1.0702796100925680e+01 0.0000000000000000e+00  -3.1986790509286190e-12 2.6395782026820823e-11 0.0000000000000000e+00  0.0000000000000000e+00 0.0000000000000000e+00 0.0000000000000000e+00  2.2365197938310519e-02 -1.0722043453059504e+01 0.0000000000000000e+00  2.6989633021784365e-02 -1.1099406381768976e+01 0.0000000000000000e+00  4.4998613743033669e-02 -1.0714702892965713e+01 0.0000000000000000e+00  9.1949468643793664e-02 -1.8409636656534258e-02 0.0000000000000000e+00  9.3238621267909105e-02 -1.5907005256076426e-02 0.0000000000000000e+00  9.3677173160459051e-02 -1.3921596697848438e-02 0.0000000000000000e+00  4.2517588935397671e-02 1.1457504847640694e-01 0.0000000000000000e+00  1.9726341080162420e-02 1.1127342318582154e-01 0.0000000000000000e+00  1.0593412819259716e-03 1.1107353709021869e-01 0.0000000000000000e+00  -1.7410515753171631e-02 1.1175972993959403e-01 0.0000000000000000e+00  -4.2073270971659499e-02 1.1458427648327485e-01 0.0000000000000000e+00  -8.9846021380177804e-02 2.3644567063830051e-02 0.0000000000000000e+00  -9.1098843640504759e-02 2.0771750843034963e-02 0.0000000000000000e+00  -9.1505634407477776e-02 1.8444241139748525e-02 0.0000000000000000e+00  -4.1959833293945842e-02 -1.0745629885995260e+01 0.0000000000000000e+00  -2.7030450336358001e-02 -1.1117111449920783e+01 0.0000000000000000e+00  -4.5930097127584620e-03 -1.0727182398416595e+01 0.0000000000000000e+00  0.0000000000000000e+00 0.0000000000000000e+00 0.0000000000000000e+00  0.0000000000000000e+00 0.0000000000000000e+00 0.0000000000000000e+00  1.9974376279500248e-02 -1.0743910756805940e+01 0.0000000000000000e+00  2.1896636414588427e-02 -1.1121789964733209e+01 0.0000000000000000e+00  3.7603594674660075e-02 -1.0738939324771906e+01 0.0000000000000000e+00  7.8111004889891172e-02 -1.8772392468878532e-02 0.0000000000000000e+00  8.0449020980958047e-02 -1.3312649383517948e-02 0.0000000000000000e+00  8.2029213113058344e-02 -8.2486146402165131e-03 0.0000000000000000e+00  3.6062483654812037e-02 1.4830251343860845e-01 0.0000000000000000e+00  1.6715124724401575e-02 1.4375906246818695e-01 0.0000000000000000e+00  6.2580798977895750e-04 1.4315751423432185e-01 0.0000000000000000e+00  -1.5227804002350950e-02 1.4425630889224106e-01 0.0000000000000000e+00  -3.6572476587768826e-02 1.4847462543328968e-01 0.0000000000000000e+00  -7.5477727586126808e-02 2.3981582267408142e-02 0.0000000000000000e+00  -7.7756226341112886e-02 1.8213499586927244e-02 0.0000000000000000e+00  -7.9302890751479560e-02 1.2850484393754105e-02 0.0000000000000000e+00  -3.2537615741662862e-02 -1.0766970513864226e+01 0.0000000000000000e+00  -2.2072386614723497e-02 -1.1136493378057210e+01 0.0000000000000000e+00  -2.5306442858780368e-03 -1.0746258241749025e+01 0.0000000000000000e+00  0.0000000000000000e+00 0.0000000000000000e+00 0.0000000000000000e+00  0.0000000000000000e+00 0.0000000000000000e+00 0.0000000000000000e+00  1.6545380293011624e-02 -1.0759090820692494e+01 0.0000000000000000e+00  1.4691193511497018e-02 -1.1137526931435355e+01 0.0000000000000000e+00  2.7084402788312905e-02 -1.0756051097000002e+01 0.0000000000000000e+00  5.6139102278948777e-02 -1.6753221533468605e-02 0.0000000000000000e+00  5.9175330230020071e-02 -9.0020812154544480e-03 0.0000000000000000e+00  6.1646955105505302e-02 -1.5145388912414352e-03 0.0000000000000000e+00  2.5929330410770866e-02 1.7537863042953575e-01 0.0000000000000000e+00  1.2142752003599050e-02 1.6984577682007646e-01 0.0000000000000000e+00  3.3312569383335436e-04 1.6886747057010537e-01 0.0000000000000000e+00  -1.1208043192312981e-02 1.7023623381102437e-01 0.0000000000000000e+00  -2.7084524671113115e-02 1.7557707142504170e-01 0.0000000000000000e+00  -5.3084031693670597e-02 2.1937545199682294e-02 0.0000000000000000e+00  -5.6036290951731578e-02 1.3959964521242020e-02 0.0000000000000000e+00  -5.8457225175761608e-02 6.2591823210311238e-03 0.0000000000000000e+00  -1.8184540221813202e-02 -1.0779454909146212e+01 0.0000000000000000e+00  -1.4131305463287024e-02 -1.1148062285921984e+01 0.0000000000000000e+00  9.2156431454994950e-04 -1.0757911975124930e+01 0.0000000000000000e+00  0.0000000000000000e+00 0.0000000000000000e+00 0.0000000000000000e+00  0.0000000000000000e+00 0.0000000000000000e+00 0.0000000000000000e+00  1.2483316279358416e-02 -1.0766040853172845e+01 0.0000000000000000e+00  6.2322122556591891e-03 -1.1145033367730729e+01 0.0000000000000000e+00  1.4708134174270516e-02 -1.0764342135016214e+01 0.0000000000000000e+00  2.8564207536361377e-02 -1.2719427663042043e-02 0.0000000000000000e+00  3.1955349317549855e-02 -3.5281755440849036e-03 0.0000000000000000e+00  3.5039520683845374e-02 5.5306411296001633e-03 0.0000000000000000e+00  1.3224934413663510e-02 1.9290982265014237e-01 0.0000000000000000e+00  6.4778381160909716e-03 1.8676139161242331e-01 0.0000000000000000e+00  1.6500809834491743e-04 1.8548569075546512e-01 0.0000000000000000e+00  -5.8548023279961971e-03 1.8696846370766021e-01 0.0000000000000000e+00  -1.4727617869038872e-02 1.9306612614435625e-01 0.0000000000000000e+00  -2.5228111562635932e-02 1.7889776174267822e-02 0.0000000000000000e+00  -2.8513446237033665e-02 8.5744174986307001e-03 0.0000000000000000e+00  -3.1535528617126878e-02 -6.