<?xml version="1.0"?>
<VTKFile type="UnstructuredGrid"  version="0.1"  >
<UnstructuredGrid>
<Piece  NumberOfPoints="589" NumberOfCells="1080">
<Points>
<DataArray  type="Float64"  NumberOfComponents="3"  format="ascii">-9 0 0  -8 0 0  -7 0 0  -6 0 0  -5 0 0  -4 0 0  -3 0 0  -2 0 0  -1 0 0  0 0 0  1 0 0  2 0 0  3 0 0  4 0 0  5 0 0  6 0 0  7 0 0  8 0 0  9 0 0  -9 2 0  -8.000000472450688 1.999999557186018 0  -7.00000101118314 1.999999133428102 0  -6.000001720960267 1.999998739853491 0  -5.000002798750828 1.999998367229869 0  -4.000002054899261 1.999998874576005 0  -3.000001203187765 1.999999168767572 0  -2.00000066042309 1.999999362919346 0  -1.000000305962961 1.999999509760283 0  -6.610949448520663e-08 1.99999957147133 0  1.000000163281191 1.99999953269129 0  2.000000480218282 1.99999940000528 0  3.000000960240315 1.999999216112566 0  4.000001644184318 1.999998973196667 0  5.000002557554763 1.999998757483703 0  6.000001565487847 1.999998948091211 0  7.000000916959285 1.999999244276103 0  8.000000427777795 1.999999606124361 0  9 2 0  -9 4 0  -8.000000679773711 3.999999038148691 0  -7.000001338186893 3.999998146123871 0  -6.000001969865347 3.999997395903767 0  -5.000002590665953 3.999996864755676 0  -4.000001719486907 3.999997001027889 0  -3.00000099971327 3.999997535970087 0  -2.000000516518567 3.99999822909374 0  -1.000000239659588 3.999998762747577 0  -9.002339021147722e-08 3.999998979999104 0  1.000000050774101 3.999998830203538 0  2.000000303081852 3.999998390393734 0  3.00000078172793 3.999997774411054 0  4.000001501647505 3.99999714131081 0  5.000002320611294 3.99999685023059 0  6.000001756819791 3.999997473873659 0  7.000001196529092 3.999998225899767 0  8.000000609939979 3.999999084140154 0  9 4 0  -9 6 0  -8.000000972538233 5.999998239807932 0  -7.000001772129714 5.999996591602948 0  -6.000002262282636 5.999995175667644 0  -5.000002396260909 5.999994118880213 0  -4.000001060075657 5.999994780179336 0  -3.000000261343657 5.99999620398196 0  -2.000000056600588 5.9999976983791 0  -1.000000117608943 5.999998553124843 0  -1.92041234249443e-07 5.999998755659836 0  0.9999997862861215 5.999998478154481 0  1.999999875673101 5.999997724588211 0  3.000000134815893 5.999996486715042 0  4.000000709395434 5.999995206367361 0  5.000001881391332 5.99999459962012 0  6.000001934149287 5.999995486125687 0  7.00000158129238 5.9999967826686 0  8.000000885504905 5.999998331680497 0  9 6 0  -9 8 0  -8.000001957080254 7.999996993527094 0  -7.0000034438254 7.999994108011899 0  -6.000003979399926 7.999991518848002 0  -5.000003088462088 7.999989537114015 0  -4.000000986789098 7.999992502838538 0  -3.000000932056677 7.999995995426238 0  -2.000001259073692 7.999997787539911 0  -1.000000967078286 7.999998131355563 0  -2.34995667391891e-07 7.99999823979089 0  1.000000415258541 7.999998342099287 0  2.00000059391864 7.999997595050299 0  3.000000167300327 7.999996221150991 0  4.000000390784227 7.999993247366367 0  5.000002579324683 7.999989983850903 0  6.000003733935227 7.999991858238149 0  7.000003337773634 7.999994329569692 0  8.00000191993492 7.999997101997483 0  9 8 0  -9 10 0  -8.000004822933779 9.999995263440999 0  -7.000008920155136 9.999990439053446 0  -6.000011402533975 9.999985432370201 0  -5.000010985337608 9.999980132258223 0  -4.00000802584565 9.999988826905225 0  -3.000007726305335 9.999996430109261 0  -2.000005818042878 9.999995632386645 0  -1.000002852953073 9.999995376087753 0  -5.101157954522677e-07 9.99999531999868 0  1.000001818348523 9.999995286778399 0  2.000004696753217 9.999995110987342 0  3.000007660429731 9.999997223830256 0  4.000008090576943 9.999990020199105 0  5.000011290865807 9.999980832528545 0  6.000011736756013 9.999985842618608 0  7.000009180929108 9.999990672113332 0  8.000004962724837 9.999995370035036 0  9 10 0  -9 12 0  -8.00001059152304 11.99999388471325 0  -7.000020855674601 11.99998749934838 0  -6.000030423663787 11.99998051972279 0  -5.000038851083095 11.99997249273653 0  -4.000037691898472 11.99998687230968 0  -3.000038425686336 12.00000110620416 0  -2.000025859749504 11.99999934725073 0  -1.000012815521508 11.99999841012814 0  3.697804574210034e-07 11.9999982080796 0  1.00001369652542 11.99999875873552 0  2.000027222115201 12.00000025467187 0  3.000040822947844 12.00000319640297 0  4.000040195086553 11.99998785288416 0  5.000040831463497 11.99997243119544 0  6.000031746212882 11.99998054947462 0  7.000021673470618 11.99998754101058 0  8.000010983513912 11.99999390993961 0  9 12 0  -9 14 0  -8.000017669390171 13.99999358633947 0  -7.000035575520053 13.99998693675668 0  -6.00005400653161 13.99997979661847 0  -5.000073375464183 13.99997187701996 0  -4.000073804537588 13.99998686254378 0  -3.000073293462505 14.00000209232707 0  -2.000047815025829 13.99999977488943 0  -1.000023342570857 13.99999850394754 0  6.839336704124758e-07 13.99999808540943 0  1.000024779594856 13.99999844965382 0  2.000049447037412 13.99999961530674 0  3.000075188240401 14.00000165345838 0  4.000076008181422 13.99998670420494 0  5.000075866983717 13.99997190044368 0  6.000055705108647 13.9999797634767 0  7.000036634555733 13.99998690043711 0  8.000018178334386 13.99999356537414 0  9 14 0  -9 16 0  -8.000023800043955 15.99999423167404 0  -7.000048195424937 15.99998833643004 0  -6.000073837052882 15.99998219141903 0  -5.00010149206383 15.99997568658137 0  -4.00010256694827 15.99998654727506 0  -3.000101221287636 15.99999731738977 0  -2.000065747045597 15.99999601674542 0  -1.000032086119318 15.99999518830722 0  7.214550380356041e-07 15.9999948317463 0  1.000033575820993 15.99999493507191 0  2.000067377526976 15.99999548607992 0  3.000103091573225 15.99999646705522 0  4.000104541885682 15.99998584054689 0  5.000103519317127 15.99997520911691 0  6.000075297939232 15.99998188183882 0  7.000049137844559 15.99998814801133 0  8.000024261355385 15.99999414208149 0  9 16 0  -9 18 0  -8.000027549085678 17.99999538467621 0  -7.00005582992252 17.9999907351768 0  -6.00008561336262 17.99998602553425 0  -5.000117748510701 17.99998124749181 0  -4.00011907103041 17.99998605978279 0  -3.000117555206722 17.99999086906205 0  -2.000076426538067 17.9999903698485 0  -1.000037416607501 17.9999899852682 0  5.717930636283757e-07 17.99998973864858 0  1.000038582995033 17.99998962986669 0  2.00007765933674 17.99998963707742 0  3.000118891339431 17.99998971365166 0  4.000120458670538 17.99998517513734 0  5.000119152011769 17.99998067170825 0  6.000086644881755 17.99998562641565 0  7.000056506239789 17.99999048400559 0  8.000027883571244 17.99999526339413 0  9 18 0  -9 20 0  -8.000028370930968 19.99999667436455 0  -7.000057453629895 19.99999337447872 0  -6.000087982218919 19.99999013322453 0  -5.000120734530592 19.9999869980139 0  -4.000122020530934 19.99998558086098 0  -3.000120593362573 19.99998416600186 0  -2.00007863174546 19.99998426444203 0  -1.000038661402272 19.99998423045726 0  3.309171556373594e-07 19.99998409423853 0  1.00003932992652 19.99998386072373 0  2.000079319194286 19.99998351063746 0  3.000121308673844 19.99998299957803 0  4.000122733376979 19.9999847283022 0  5.000121446291433 19.99998647960162 0  6.00008851722744 19.99998975943527 0  7.000057810376687 19.99999313278646 0  8.000028549219962 19.99999655581911 0  9 20 0  -9 22 0  -8.00002634555851 21.99999786103702 0  -7.000053293460109 21.99999577923096 0  -6.000081455655444 21.99999381670736 0  -5.000111462094909 21.99999204555494 0  -4.000112559941697 21.99998513249414 0  -3.000111398121819 21.99997822607643 0  -2.000072872474727 21.99997868869491 0  -1.000035994378584 21.99997888455178 0  6.328853505995023e-08 21.99997883898483 0  1.000036116129303 21.99997855783357 0  2.000072978841095 21.99997802804376 0  3.000111475840887 21.99997721773243 0  4.000112608019735 21.99998442223879 0  5.000111496839902 21.99999164152907 0  6.000081500197678 21.9999935183489 0  7.000053331488655 21.99999558281564 0  8.000026366980451 21.99999776363101 0  9 22 0  -9 24 0  -8.00002191069647 23.99999881906916 0  -7.000044275845925 23.9999977068344 0  -6.000067551661843 23.99999673467767 0  -5.000092196844617 23.99999597924658 0  -4.000093052233901 23.99998475276012 0  -3.000092223179962 23.99997353702451 0  -2.000060523534905 23.99997417992433 0  -1.000030045886517 23.99997450427832 0  -1.850176184439479e-07 23.99997452600606 0  1.000029663130771 23.99997424943188 0  2.000060101910664 23.99997366746135 0  3.000091734433897 23.99997276194519 0  4.000092520244825 23.99998422729799 0  5.000091650700356 23.99999570477243 0  6.000067171003933 23.99999652664715 0  7.00004403554601 23.99999756743072 0  8.000021794528951 23.99999874921413 0  9 24 0  -9 26 0  -8.000015657916482 25.99999950230966 0  -7.000031615238199 25.99999907411427 0  -6.000048169795633 25.99999878572789 0  -5.00006561553179 25.99999870892122 0  -4.000066227557391 25.99998446423565 0  -3.00006573997344 25.99997023191057 0  -2.000043287086988 25.99997094526761 0  -1.000021630497196 25.99997133444482 0  -3.824226586030962e-07 25.99997140617026 0  1.000020847866023 25.99997116254853 0  2.000042450527948 25.9999706009889 0  3.000064811642594 25.99996971467478 0  4.00006525127733 25.99998412499384 0  5.000064627922972 25.99999854602608 0  6.000047464472735 25.99999865929447 0  7.000031161616621 25.99999898803588 0  8.000015436037721 25.99999945878026 0  9 26 0  -9 28 0  -8.000008207410492 27.99999990756686 0  -7.000016565454487 27.99999988215273 0  -6.000025223160351 27.9999999904079 0  -5.000034325910223 28.00000029803996 0  -4.000034713939706 27.99998427594485 0  -3.000034551664692 27.99996826629406 0  -2.000022865906149 27.9999690072807 0  -1.000011581257753 27.99996943436996 0  -5.086687252960475e-07 27.99996954767444 0  1.000010543350138 27.9999693473667 0  2.00002176580371 27.99996883345375 0  3.000033346293124 27.99996800624923 0  4.000033459873922 27.99998410845017 0  5.000033063802086 28.00000022150157 0  6.000024315198248 27.99999993004402 0  7.000015978360183 27.99999984062582 0  8.000007919291416 27.99999988644284 0  9 28 0  -9 30 0  
[...]
<PointData  Vectors="f_44-0"> 
<DataArray  type="Float64"  Name="f_44-0"  NumberOfComponents="3" format="ascii">0.0000000000000000e+00 0.0000000000000000e+00 0.0000000000000000e+00  -3.4258924567490183e-09 -6.7548593381631744e-02 0.0000000000000000e+00  6.2320937933100925e-09 -6.6140142443991870e-02 0.0000000000000000e+00  3.7205377253878176e-09 -5.0801892981912060e-02 0.0000000000000000e+00  0.0000000000000000e+00 0.0000000000000000e+00 0.0000000000000000e+00  0.0000000000000000e+00 0.0000000000000000e+00 0.0000000000000000e+00  0.0000000000000000e+00 0.0000000000000000e+00 0.0000000000000000e+00  0.0000000000000000e+00 0.0000000000000000e+00 0.0000000000000000e+00  0.0000000000000000e+00 0.0000000000000000e+00 0.0000000000000000e+00  0.0000000000000000e+00 0.0000000000000000e+00 0.0000000000000000e+00  0.0000000000000000e+00 0.0000000000000000e+00 0.0000000000000000e+00  0.0000000000000000e+00 0.0000000000000000e+00 0.0000000000000000e+00  0.0000000000000000e+00 0.0000000000000000e+00 0.0000000000000000e+00  0.0000000000000000e+00 0.0000000000000000e+00 0.0000000000000000e+00  0.0000000000000000e+00 0.0000000000000000e+00 0.0000000000000000e+00  -3.1952385745810775e-09 -6.7747792184455979e-02 0.0000000000000000e+00  6.5905925739147147e-09 -6.6284977974676057e-02 0.0000000000000000e+00  3.6564117762133023e-09 -5.0799236049603173e-02 0.0000000000000000e+00  0.0000000000000000e+00 0.0000000000000000e+00 0.0000000000000000e+00  0.0000000000000000e+00 0.0000000000000000e+00 0.0000000000000000e+00  1.8381856911369312e-05 -5.7717714149641941e-02 0.0000000000000000e+00  2.7062603833975649e-04 -6.6051419092145583e-02 0.0000000000000000e+00  5.0606663763717429e-04 -5.7764442798874931e-02 0.0000000000000000e+00  5.4322968225684940e-06 -8.5547617284021315e-05 0.0000000000000000e+00  3.6807539255192612e-05 -9.8246305026069813e-05 0.0000000000000000e+00  2.6536129121282891e-05 -8.1070674126018741e-05 0.0000000000000000e+00  3.3061185650373872e-05 -4.8551613052667797e-05 0.0000000000000000e+00  2.5998856571644520e-05 -3.1288259510797308e-05 0.0000000000000000e+00  1.4725859092969562e-05 -2.9124574074811767e-05 0.0000000000000000e+00  2.5966549032896718e-06 -4.1161715050450431e-05 0.0000000000000000e+00  -3.9508838685234419e-06 -6.2336434975649108e-05 0.0000000000000000e+00  -4.8589253036262616e-06 -9.2324015179368903e-05 0.0000000000000000e+00  2.1314653796553321e-07 -1.0820505318429632e-04 0.0000000000000000e+00  -4.0270754737506197e-06 -1.8538880589158495e-04 0.0000000000000000e+00  9.3034992338518951e-05 -5.7869139184294469e-02 0.0000000000000000e+00  3.4814211377167927e-04 -6.6190839328598261e-02 0.0000000000000000e+00  5.8923491600318173e-04 -5.7858532812895623e-02 0.0000000000000000e+00  0.0000000000000000e+00 0.0000000000000000e+00 0.0000000000000000e+00  0.0000000000000000e+00 0.0000000000000000e+00 0.0000000000000000e+00  1.4770564639454630e-04 -5.7753849298311552e-02 0.0000000000000000e+00  -1.8604158552136139e-05 -6.5470355585547729e-02 0.0000000000000000e+00  1.8338430438196251e-04 -5.7980299075510847e-02 0.0000000000000000e+00  -1.2478185727435306e-04 -1.8476371559680529e-04 0.0000000000000000e+00  -5.2126094043906020e-05 -1.2417142846452131e-04 0.0000000000000000e+00  -1.6793308104085247e-05 -4.6644219384833429e-05 0.0000000000000000e+00  3.7899244084180050e-07 -1.7809593333654268e-05 0.0000000000000000e+00  -8.6614769763761550e-06 -1.6168506356830314e-05 0.0000000000000000e+00  -1.7798287272865640e-05 -2.7819343769548176e-05 0.0000000000000000e+00  -2.0100551965570422e-05 -4.1631867889998544e-05 0.0000000000000000e+00  -3.8137251139933951e-06 -7.6298275443628728e-05 0.0000000000000000e+00  1.0422299192970515e-05 -1.1802241736265723e-04 0.0000000000000000e+00  3.1136645752469843e-05 -1.2920102444383854e-04 0.0000000000000000e+00  6.6125878145451193e-05 -9.1978480379948052e-05 0.0000000000000000e+00  2.4198769914067066e-04 -5.7899300623270172e-02 0.0000000000000000e+00  8.3915978722094660e-05 -6.5590197246416224e-02 0.0000000000000000e+00  2.7927088109088138e-04 -5.8055897007096596e-02 0.0000000000000000e+00  0.0000000000000000e+00 0.0000000000000000e+00 0.0000000000000000e+00  0.0000000000000000e+00 0.0000000000000000e+00 0.0000000000000000e+00  1.3628046186241489e-04 -5.7802321783546620e-02 0.0000000000000000e+00  -6.2421593377205096e-05 -6.5385772206829632e-02 0.0000000000000000e+00  7.2885866423519875e-05 -5.7952974172174009e-02 0.0000000000000000e+00  -1.4113281223300224e-04 -2.2456091280752402e-04 0.0000000000000000e+00  -5.0548511710415995e-05 -1.2109411173129229e-04 0.0000000000000000e+00  -1.4984719324183916e-05 -6.3617248370845914e-05 0.0000000000000000e+00  -3.7183650462419759e-05 -8.3960785808189083e-05 0.0000000000000000e+00  -3.0914752805721652e-05 -8.0559390176862864e-05 0.0000000000000000e+00  -1.4514725213342798e-05 -4.2625370853990237e-05 0.0000000000000000e+00  -4.6585842037336501e-06 -3.6535326648945917e-05 0.0000000000000000e+00  -1.9713653544577687e-05 -7.4762983374101008e-05 0.0000000000000000e+00  -5.8647714118845183e-06 -1.3789778179601421e-04 0.0000000000000000e+00  4.7113135601584135e-05 -2.6034332259130671e-04 0.0000000000000000e+00  7.2048685265994189e-05 -3.5264602073152183e-04 0.0000000000000000e+00  3.2395368187465275e-04 -5.7965198469888742e-02 0.0000000000000000e+00  1.3340412142773280e-04 -6.5460047635658200e-02 0.0000000000000000e+00  2.3739832426295429e-04 -5.7923886757994633e-02 0.0000000000000000e+00  0.0000000000000000e+00 0.0000000000000000e+00 0.0000000000000000e+00  0.0000000000000000e+00 0.0000000000000000e+00 0.0000000000000000e+00  2.8696551890274794e-05 -5.7622214100478804e-02 0.0000000000000000e+00  -2.4960491826347335e-04 -6.5288859714490333e-02 0.0000000000000000e+00  -1.8161893864172338e-04 -5.7944948704693792e-02 0.0000000000000000e+00  -4.5569749196411433e-04 -5.3764245506930338e-04 0.0000000000000000e+00  -3.4714999722892118e-04 -2.8553639292963558e-04 0.0000000000000000e+00  -1.5356018678146116e-04 -2.6459069986053876e-04 0.0000000000000000e+00  -1.5436859746692847e-04 -2.5916901776473983e-04 0.0000000000000000e+00  -3.7752260158530061e-05 -1.4847045770204024e-04 0.0000000000000000e+00  3.8611182558792058e-05 -1.2752864874469424e-04 0.0000000000000000e+00  1.2769266712313416e-04 -2.1436167176049398e-04 0.0000000000000000e+00  1.5428586294933565e-04 -1.1481607291783826e-04 0.0000000000000000e+00  4.0775850531157745e-04 -2.6564473836585142e-04 0.0000000000000000e+00  4.2843132326848810e-04 -6.0977086261192236e-04 0.0000000000000000e+00  3.8287644757877898e-04 -7.7026506407151568e-04 0.0000000000000000e+00  5.1194438935738061e-04 -5.7911577352075867e-02 0.0000000000000000e+00  2.8651003976933569e-04 -6.5289137253234819e-02 0.0000000000000000e+00  3.0828489474949951e-04 -5.7722703922035573e-02 0.0000000000000000e+00  0.0000000000000000e+00 0.0000000000000000e+00 0.0000000000000000e+00  0.0000000000000000e+00 0.0000000000000000e+00 0.0000000000000000e+00  -2.0165927760851601e-04 -5.7112345890565304e-02 0.0000000000000000e+00  -7.1236004473747836e-04 -6.4864381654605868e-02 0.0000000000000000e+00  -8.2116237297052128e-04 -5.7867387823868133e-02 0.0000000000000000e+00  -1.5510037969219408e-03 -6.7573311043894952e-04 0.0000000000000000e+00  -1.1722288950598754e-03 -2.7517570136705071e-04 0.0000000000000000e+00  -8.6995853380046910e-04 7.1004651864627083e-05 0.0000000000000000e+00  -3.1465758080397228e-04 -5.4975205119461976e-04 0.0000000000000000e+00  -1.1553863871265850e-04 -3.3075740914417621e-04 0.0000000000000000e+00  8.4262619631798603e-05 -2.8865710131782620e-04 0.0000000000000000e+00  2.7398803075500550e-04 -2.9839000986112591e-04 0.0000000000000000e+00  4.5403464044981034e-04 -3.3642791813881653e-04 0.0000000000000000e+00  1.0691079628441511e-03 -2.2508643797740388e-04 0.0000000000000000e+00  1.2170635171447936e-03 -7.8203456021265863e-04 0.0000000000000000e+00  1.5365752833540487e-03 -1.4520610298034762e-03 0.0000000000000000e+00  1.1218619944689840e-03 -5.7666455574134079e-02 0.0000000000000000e+00  6.8806232981240766e-04 -6.4841223323900424e-02 0.0000000000000000e+00  4.9003965682544945e-04 -5.7270256954066866e-02 0.0000000000000000e+00  0.0000000000000000e+00 0.0000000000000000e+00 0.0000000000000000e+00  0.0000000000000000e+00 0.0000000000000000e+00 0.0000000000000000e+00  -5.6968369806658162e-04 -5.6016072429209085e-02 0.0000000000000000e+00  -1.4872325788703269e-03 -6.3782044507326136e-02 0.0000000000000000e+00  -2.0127856402088716e-03 -5.7144288018145389e-02 0.0000000000000000e+00  -2.6311008400494718e-03 -1.4027767951565124e-03 0.0000000000000000e+00  -2.7623279693391590e-03 -3.8261970110773990e-04 0.0000000000000000e+00  -3.0774677602689719e-03 8.7058934374511121e-04 0.0000000000000000e+00  -1.8449058312177292e-03 -1.9124989672342136e-03 0.0000000000000000e+00  -7.9409132621925487e-04 -2.2966101350923875e-03 0.0000000000000000e+00  2.0477205539010237e-04 -2.3119068647308289e-03 0.0000000000000000e+00  1.1936109822420094e-03 -2.0816749313136438e-03 0.0000000000000000e+00  2.0485783679562151e-03 -1.3928194192316928e-03 0.0000000000000000e+00  2.5492483711433019e-03 2.1962684932872692e-04 0.0000000000000000e+00  2.7641230903151020e-03 -7.2260213724044387e-04 0.0000000000000000e+00  3.0334714602028362e-03 -1.5098543249225597e-03 0.0000000000000000e+00  2.3083838871560277e-03 -5.6918889036525887e-02 0.0000000000000000e+00  1.4200165217824491e-03 -6.3794305357251238e-02 0.0000000000000000e+00  8.1439543598632060e-04 -5.6305326918446440e-02 0.0000000000000000e+00  0.0000000000000000e+00 0.0000000000000000e+00 0.0000000000000000e+00  0.0000000000000000e+00 0.0000000000000000e+00 0.0000000000000000e+00  -1.0164674585402061e-03 -5.4118594103533854e-02 0.0000000000000000e+00  -2.4518267958126383e-03 -6.1741297022240467e-02 0.0000000000000000e+00  -3.5685088874709719e-03 -5.5452538698924962e-02 0.0000000000000000e+00  -4.4287212413311773e-03 -1.7776936336086943e-03 0.0000000000000000e+00  -4.5539221522637270e-03 -7.2915154099097027e-04 0.0000000000000000e+00  -4.5962325690283813e-03 1.5672966158856405e-04 0.0000000000000000e+00  -3.1998502724047808e-03 -4.1335984601997711e-03 0.0000000000000000e+00  -1.5036908183827498e-03 -5.0064953702915835e-03 0.0000000000000000e+00  1.9951972063926433e-04 -5.1508988397130006e-03 0.0000000000000000e+00  1.8869183008623032e-03 -4.8559845777850445e-03 0.0000000000000000e+00  3.5308624228360484e-03 -3.6210639842063912e-03 0.0000000000000000e+00  4.5770730107995315e-03 5.3628627368334939e-04 0.0000000000000000e+00  4.7146466214429018e-03 -5.1347009041022740e-04 0.0000000000000000e+00  4.7648366903521233e-03 -1.6091211894832265e-03 0.0000000000000000e+00  3.8606210106402654e-03 -5.5100654356823958e-02 0.0000000000000000e+00  2.3818788579191949e-03 -6.1817683236087766e-02 0.0000000000000000e+00  1.2398507044847798e-03 -5.4578780719066751e-02 0.0000000000000000e+00  0.0000000000000000e+00 0.0000000000000000e+00 0.0000000000000000e+00  0.0000000000000000e+00 0.0000000000000000e+00 0.0000000000000000e+00  -1.4306537501532185e-03 -5.1380980931702361e-02 0.0000000000000000e+00  -3.3518824157475397e-03 -5.8670166732507328e-02 0.0000000000000000e+00  -5.0258527245777363e-03 -5.2696878158030890e-02 0.0000000000000000e+00  -6.3644527981136460e-03 -1.7589962110644800e-03 0.0000000000000000e+00  -6.4932478863787739e-03 -9.0067318703904316e-04 0.0000000000000000e+00  -6.4752563794699645e-03 -3.5553077279856041e-05 0.0000000000000000e+00  -4.5221612431339446e-03 -7.8415157862257254e-03 0.0000000000000000e+00  -2.1850429354658639e-03 -8.9776110115434484e-03 0.0000000000000000e+00  1.6267507531781241e-04 -9.1811600128284283e-03 0.0000000000000000e+00  2.5124688426598858e-03 -8.8788900044728773e-03 0.0000000000000000e+00  4.8773288460847676e-03 -7.1623454650549751e-03 0.0000000000000000e+00  6.4775612549405007e-03 4.2280475702059512e-04 0.0000000000000000e+00  6.6073039345519342e-03 -4.3944705794000407e-04 0.0000000000000000e+00  6.5920914206833801e-03 -1.2581052449001319e-03 0.0000000000000000e+00  5.2988070085657271e-03 -5.2224494401325948e-02 0.0000000000000000e+00  3.3077799116463255e-03 -5.8780465780556138e-02 0.0000000000000000e+00  1.6581039253766921e-03 -5.1991892963474118e-02 0.0000000000000000e+00  0.0000000000000000e+00 0.0000000000000000e+00 0.0000000000000000e+00  0.0000000000000000e+00 0.0000000000000000e+00 0.0000000000000000e+00  -1.7159212442863210e-03 -4.7967241888737341e-02 0.0000000000000000e+00  -3.9744214655370686e-03 -5.4758587905937149e-02 0.0000000000000000e+00  -6.0421092733886793e-03 -4.9080749836604882e-02 0.0000000000000000e+00  -7.7983408781817721e-03 -1.4523567576192160e-03 0.0000000000000000e+00  -7.9064893199490612e-03 -9.4981263037783963e-04 0.0000000000000000e+00  -7.8065460606336233e-03 -4.6425739985713870e-04 0.0000000000000000e+00  -5.5023040020602777e-03 -1.2527739561237370e-02 0.0000000000000000e+00  -2.7067942162808723e-03 -1.4087469563283602e-02 0.0000000000000000e+00  1.0314998826275608e-04 -1.4291494179304655e-02 0.0000000000000000e+00  2.9184965774399743e-03 -1.3988706485518830e-02 0.0000000000000000e+00  5.7825549228237788e-03 -1.1764709212387146e-02 0.0000000000000000e+00  7.8841205855716689e-03 6.3857365635549109e-05 0.0000000000000000e+00  8.0013381056223409e-03 -4.1559219946155800e-04 0.0000000000000000e+00  7.9103376966048310e-03 -8.8150669989362624e-04 0.0000000000000000e+00  6.3239842529057705e-03 -4.8486977378665440e-02 0.0000000000000000e+00  3.9752439083299137e-03 -5.4868912936430883e-02 0.0000000000000000e+00  1.9649719671413126e-03 -4.8671556542046156e-02 0.0000000000000000e+00  0.0000000000000000e+00 0.0000000000000000e+00 0.0000000000000000e+00  0.0000000000000000e+00 0.0000000000000000e+00 0.0000000000000000e+00  -1.8161976471100100e-03 -4.4188222638424854e-02 0.0000000000000000e+00  -4.1975883186478125e-03 -5.0373281743907462e-02 0.0000000000000000e+00  -6.4277042772301219e-03 -4.4973128537541089e-02 0.0000000000000000e+00  -8.4286248788418647e-03 -1.0061393456913790e-03 0.0000000000000000e+00  -8.5164914481570958e-03 -9.5400962857565476e-04 0.0000000000000000e+00  -8.3900546288006965e-03 -9.1047031287772712e-04 0.0000000000000000e+00  -5.9075761739584157e-03 -1.7787171489746213e-02 0.0000000000000000e+00  -2.9532053447911904e-03 -1.9833032913222859e-02 0.0000000000000000e+00  3.3112476586516044e-05 -2.0031101365734164e-02 0.0000000000000000e+00  3.0270106024047980e-03 -1.9728686978631158e-02 0.0000000000000000e+00  6.0948869525772600e-03 -1.6976466465800248e-02 0.0000000000000000e+00  8.4783634756248494e-03 -4.2091687853023003e-04 0.0000000000000000e+00  8.5700164891028933e-03 -4.5134279477968941e-04 0.0000000000000000e+00  8.4451924433516807e-03 -4.7404232703065612e-04 0.0000000000000000e+00  6.7188665019531045e-03 -4.4314845341028503e-02 0.0000000000000000e+00  4.2480643957576412e-03 -5.0459431256583483e-02 0.0000000000000000e+00  2.0951809175097777e-03 -4.4912654232079255e-02 0.0000000000000000e+00  7.9341668442839827e-11 2.5414026443884265e-11 0.0000000000000000e+00  0.0000000000000000e+00 0.0000000000000000e+00 0.0000000000000000e+00  -1.7143046072174933e-03 -4.0424332631252800e-02 0.0000000000000000e+00  -3.9845636696401558e-03 -4.5962777231171204e-02 0.0000000000000000e+00  -6.1273104537844895e-03 -4.0810844223937562e-02 0.0000000000000000e+00  -8.1522825457125969e-03 -5.2774368229887615e-04 0.0000000000000000e+00  -8.2199496693466292e-03 -9.2529849479305740e-04 0.0000000000000000e+00  -8.0897680768519092e-03 -1.3258601409845056e-03 0.0000000000000000e+00  -5.6911310292338492e-03 -2.3033323301581251e-02 0.0000000000000000e+00  -2.8886386101443871e-03 -2.5619609217053908e-02 0.0000000000000000e+00  -3.7655512808437252e-05 -2.5815637321110512e-02 0.0000000000000000e+00  2.8234968991959187e-03 -2.5514162613045368e-02 0.0000000000000000e+00  5.7762075162285306e-03 -2.2254414009878206e-02 0.0000000000000000e+00  8.1614491675470330e-03 -9.2893722849811931e-04 0.0000000000000000e+00  8.2287297803901489e-03 -5.0967611786841298e-04 0.0000000000000000e+00  8.0993083111877400e-03 -8.6561180890775002e-05 0.0000000000000000e+00  6.4286486567078230e-03 -4.0158535367250107e-02 0.0000000000000000e+00  4.0821834493977400e-03 -4.6018395886200457e-02 0.0000000000000000e+00  2.0241926984594584e-03 -4.1097796513246701e-02 0.0000000000000000e+00  0.0000000000000000e+00 0.0000000000000000e+00 0.0000000000000000e+00  0.0000000000000000e+00 0.0000000000000000e+00 0.0000000000000000e+00  -1.4230439190810842e-03 -3.7058275730687068e-02 0.0000000000000000e+00  -3.3632028519543157e-03 -4.1978919882486268e-02 0.0000000000000000e+00  -5.1855316924160040e-03 -3.7024605887313190e-02 0.0000000000000000e+00  -7.0080686683583202e-03 -8.8675765462530764e-05 0.0000000000000000e+00  -7.0546556116220932e-03 -8.8226642786797406e-04 0.0000000000000000e+00  -6.9397344261766377e-03 -1.6761305765820350e-03 0.0000000000000000e+00  -4.8842657741214844e-03 -2.7722426277849595e-02 0.0000000000000000e+00  -2.5251017953318564e-03 -3.0846047331617173e-02 0.0000000000000000e+00  -1.0069828492708769e-04 -3.1049174896491515e-02 0.0000000000000000e+00  2.3360939210602216e-03 -3.0751036977942060e-02 0.0000000000000000e+00  4.8752913732599580e-03 -2.7054923276319972e-02 0.0000000000000000e+00  6.9796486189623507e-03 -1.3871880037984259e-03 0.0000000000000000e+00  7.0220789255135904e-03 -5.7481857450208734e-04 0.0000000000000000e+00  6.9048709717466515e-03 2.3821314107214068e-04 0.0000000000000000e+00  5.4970889106670771e-03 -3.6453486504121210e-02 0.0000000000000000e+00  3.5017847428184534e-03 -4.2007729822807059e-02 0.0000000000000000e+00  1.7608295764101763e-03 -3.7619258916357624e-02 0.0000000000000000e+00  0.0000000000000000e+00 0.0000000000000000e+00 0.0000000000000000e+00  0.0000000000000000e+00 0.0000000000000000e+00 0.0000000000000000e+00  -9.7609026975544486e-04 -3.4425959297748089e-02 0.0000000000000000e+00  -2.4058603428707141e-03 -3.8820407446693732e-02 0.0000000000000000e+00  -3.7151031187094294e-03 -3.3990379832339483e-02 0.0000000000000000e+00  -5.1363062591069774e-03 2.6397461714214852e-04 0.0000000000000000e+00  -5.1608211045990034e-03 -8.3539605283271658e-04 0.0000000000000000e+00  -5.0716775939099231e-03 -1.9338070954095106e-03 0.0000000000000000e+00  -3.5847318004873551e-03 -3.1388166962639713e-02 0.0000000000000000e+00  -1.9074843173923959e-03 -3.4985501252521242e-02 0.0000000000000000e+00  -1.4987012368145134e-04 -3.5204078136783792e-02 0.0000000000000000e+00  1.6218050732453319e-03 -3.4913533317950989e-02 0.0000000000000000e+00  3.5007632475150684e-03 -3.0900740324163959e-02 0.0000000000000000e+00  5.0783781218141253e-03 -1.7497341171166677e-03 0.0000000000000000e+00  5.0948889300188507e-03 -6.3674120904801915e-04 0.0000000000000000e+00  5.0004015601868446e-03 4.7577311191834658e-04 0.0000000000000000e+00  4.0349156950084467e-03 -3.3567131830774595e-02 0.0000000000000000e+00  2.5759116639874732e-03 -3.8831015101233005e-02 0.0000000000000000e+00  1.3357386396576820e-03 -3.4826327492893557e-02 0.0000000000000000e+00  0.0000000000000000e+00 0.0000000000000000e+00 0.0000000000000000e+00  0.0000000000000000e+00 0.0000000000000000e+00 0.0000000000000000e+00  -4.2051724974626281e-04 -3.2784065706869078e-02 0.0000000000000000e+00  -1.2132552611482756e-03 -3.6795408339205367e-02 0.0000000000000000e+00  -1.8720971078237351e-03 -3.1998448055340474e-02 0.0000000000000000e+00  -2.7445186442299333e-03 5.0381085187510360e-04 0.0000000000000000e+00  -2.7451190161704702e-03 -7.8856592359768864e-04 0.0000000000000000e+00  -2.6863831689284013e-03 -2.0800124705659920e-03 0.0000000000000000e+00  -1.9308631718538399e-03 -3.3680276278660895e-02 0.0000000000000000e+00  -1.1024204584239817e-03 -3.7633690671797157e-02 0.0000000000000000e+00  -1.8106278787621523e-04 -3.7872548218729284e-02 0.0000000000000000e+00  7.5539536099287010e-04 -3.7594999443580246e-02 0.0000000000000000e+00  1.7987157408486431e-03 -3.3422837070981627e-02 0.0000000000000000e+00  2.6687017138207103e-03 -1.9909176662085623e-03 0.0000000000000000e+00  2.65755425252866