<?xml version="1.0"?>
<VTKFile type="UnstructuredGrid"  version="0.1"  >
<UnstructuredGrid>
<Piece  NumberOfPoints="589" NumberOfCells="1080">
<Points>
<DataArray  type="Float64"  NumberOfComponents="3"  format="ascii">-9 0 0  -8 0 0  -7 0 0  -6 0 0  -5 0 0  -4 0 0  -3 0 0  -2 0 0  -1 0 0  0 0 0  1 0 0  2 0 0  3 0 0  4 0 0  5 0 0  6 0 0  7 0 0  8 0 0  9 0 0  -9 2 0  -8.000007066998833 1.999989484884385 0  -7.000014817052491 1.999980258073666 0  -6.000024858673796 1.999973364825344 0  -5.000040871120359 1.999969261269963 0  -4.000024318760586 1.999977067081613 0  -3.00000729131981 1.999984423324978 0  -1.99999895672464 1.999991308237541 0  -0.999997499699804 1.999996751546311 0  -3.419239280580856e-07 1.999999151181235 0  0.9999964918065253 1.999997534208947 0  1.99999685585179 1.999992304168277 0  3.000003334429346 1.999985899307682 0  4.000016713594133 1.999979085512563 0  5.000036052826213 1.999976434706361 0  6.000021704655434 1.999977359569159 0  7.000012891659424 1.999982513531511 0  8.000006153152421 1.999990528113695 0  9 2 0  -9 4 0  -8.000011401627185 3.999973817177285 0  -7.000020467859418 3.999951182367034 0  -6.000025833973063 3.999935571133935 0  -5.000027782287164 3.99993029782033 0  -4.000003746467855 3.999933973298421 0  -2.999987590145142 3.999954636269426 0  -1.999983292083678 3.999981511079643 0  -0.9999892843915889 4.000003132695504 0  -8.824786136594711e-07 4.000011883255763 0  0.9999872604831143 4.000005176795481 0  1.999980389455898 3.999986959421562 0  2.999983746814091 3.999962306602705 0  3.999998922123416 3.99993758296975 0  5.000022088405834 3.999929526797982 0  6.000021268477915 3.999937803143339 0  7.000017485203838 3.999953585242979 0  8.000009964631602 3.999975227695931 0  9 4 0  -9 6 0  -8.000025077043864 5.999943960487078 0  -7.000040919078253 5.999894015185697 0  -6.00004048048706 5.999856428487076 0  -5.000021743823132 5.999837203093738 0  -3.999974938591358 5.999867850666627 0  -2.999953618518427 5.999931748618445 0  -1.999961955013995 5.999998700255724 0  -0.9999828136785928 6.000035911960742 0  -3.896683721459419e-06 6.00004342325875 0  0.9999771869783068 6.000031459873277 0  1.999962809276131 5.999998311992575 0  2.999957464545802 5.999942309410497 0  3.999968521451074 5.999884296740036 0  5.0000082822615 5.999855720259084 0  6.000032685640672 5.999868226301182 0  7.000037027120958 5.999901218522595 0  8.000023551147857 5.999947410704807 0  9 6 0  -9 8 0  -8.000075683975911 7.999889741072136 0  -7.000126487430168 7.999787428774968 0  -6.00012831618986 7.999703855587134 0  -5.000060567721963 7.999656807544973 0  -3.999970053518426 7.99979802725537 0  -2.999986786147924 7.999963908778729 0  -2.000020787692516 8.000044676998053 0  -1.0000236843515 8.000053798053045 0  -3.443603492182595e-06 8.000056438399982 0  1.000011755581075 8.000064540134787 0  2.000005674774898 8.000031021842608 0  2.999966599711042 7.999973936822117 0  3.99995347464706 7.999832362986017 0  5.000042098571074 7.999672595292161 0  6.000124339616507 7.999716725518798 0  7.0001278265082 7.999796067826515 0  8.000077427800454 7.999894017239392 0  9 8 0  -9 10 0  -8.000225741671308 9.999803792586574 0  -7.000407876871671 9.999605975319836 0  -6.000494388160407 9.999405328766938 0  -5.000412830925975 9.999201560650897 0  -4.000269299957062 9.999657600957756 0  -3.000292911926579 10.00004965668607 0  -2.00023473091459 9.99998186812099 0  -1.000108607743549 9.999960116397054 0  -1.577915279633244e-05 9.99995481228718 0  1.00007623578394 9.999955248907877 0  2.000198605284844 9.99995290525656 0  3.000306491411397 10.00009340142457 0  4.000293198638436 9.999723451004215 0  5.000455552519595 9.999235246614329 0  6.000530858378951 9.999424493402106 0  7.00043407262504 9.999616554037052 0  8.000239358320719 9.999808531755612 0  9 10 0  -9 12 0  -8.000549894583592 11.99972440628666 0  -7.001071222164197 11.99943604616579 0  -6.001531691206302 11.99911964958148 0  -5.001891246725971 11.99875391849178 0  -4.001817856945361 11.99958570162729 0  -3.001884404608055 12.00040921075881 0  -2.001295754110076 12.00030921379043 0  -1.000640732318533 12.00025486307296 0  3.949133886820803e-05 12.00024385090198 0  1.000726629253087 12.00027785747717 0  2.001405316342514 12.00036685475257 0  3.002045088719735 12.00053584203445 0  4.001974842305585 11.99964822329333 0  5.002021458626833 11.99875328435236 0  6.001624997583304 11.99912127479891 0  7.001131659795631 11.9994375370602 0  8.000579636725583 11.99972518647379 0  9 12 0  -9 14 0  -8.000987632591658 13.99969622454052 0  -7.001976908376793 13.99937850330724 0  -6.002970778249329 13.99903165956171 0  -5.003975561738605 13.99863810253179 0  -4.003985929471441 13.99961075890943 0  -3.00399213211698 14.0005957308426 0  -2.002623550635728 14.00045423041136 0  -1.001274231258071 14.00037648171453 0  6.726072707488256e-05 14.00035302201074 0  1.001411820223979 14.00038075752722 0  2.002769578482583 14.00046121015499 0  3.004148547261224 14.00059876458406 0  4.004159486316663 13.99961350263228 0  5.004165349700398 13.99863438218264 0  6.003105006222788 13.99902550449007 0  7.002063029693519 13.99937329157775 0  8.001029772388332 13.99969335994527 0  9 14 0  -9 16 0  -8.001417865618754 15.99972391844562 0  -7.002862682993578 15.99943764630417 0  -6.004363739899593 15.99913081703657 0  -5.005955100357284 15.99879287811664 0  -4.006011677738118 15.99962345803577 0  -3.005958492753306 16.00044964466976 0  -2.003876709469437 16.00034498760678 0  -1.001877479324582 16.00028154632611 0  8.279623940997188e-05 16.00025795549514 0  1.002045331481354 16.00027332336148 0  2.004051358737551 16.0003276913988 0  3.006144752216319 16.00042182548279 0  4.006204729510283 15.99958798192583 0  5.006152295046653 15.99875350391434 0  6.004508779541676 15.99910343908192 0  7.002957846198543 15.9994201757589 0  8.001464968565172 15.99971538049861 0  9 16 0  -9 18 0  -8.001739308010755 17.9997923989588 0  -7.003521738414526 17.99957911497518 0  -6.005392656573278 17.99935456976194 0  -5.007401893572014 17.99911341867486 0  -4.007487343345624 17.9996265371988 0  -3.007405233873614 18.00013899797205 0  -2.004802738798151 18.00007149494872 0  -1.002326355362619 18.00002784536554 0  8.923360480621324e-05 18.00000768292968 0  1.002506180124279 18.00001050299658 0  2.004986548029281 18.00003569650298 0  3.007595349386114 18.00008242698567 0  4.007682387665183 17.99956891667214 0  5.007599493894034 17.99905692639448 0  6.00553906476949 17.9993144006675 0  7.003618456415153 17.9995533309557 0  8.00178739600903 17.99977979407277 0  9 18 0  -9 20 0  -8.001887349772804 19.99988359592444 0  -7.003825040662448 19.99976565211212 0  -6.005865335240934 19.99964479883292 0  -5.008064338750422 19.9995200007848 0  -4.008161844540569 19.99962675782903 0  -3.008065779771476 19.99973278884621 0  -2.005227799112595 19.99970304015685 0  -1.002533707069874 19.99968066215501 0  9.016917900683783e-05 19.99966594488545 0  1.002714835474398 19.99965863780783 0  2.00541126132275 19.99965796873454 0  3.008253020544912 19.99966259724771 0  4.008350959082289 19.99955943705934 0  5.008254315478769 19.99945731862868 0  6.006006818688852 19.99959960342758 0  7.003918876876864 19.99973638573866 0  8.001934120022169 19.99986922151111 0  8.999999999993983 19.9999999999934 0  -9 22 0  -8.001833185165099 21.99998093430097 0  -7.003716136749069 21.99996382283685 0  -6.005700180416627 21.99995080994718 0  -5.00783974722289 21.99994442397781 0  -4.007935213982112 21.9996230489104 0  -3.007840683326396 21.99930086473461 0  -2.00508082691569 21.99930525279371 0  -1.002461857014337 21.99930300017547 0  8.793804727226959e-05 21.99929473007374 0  1.002638097672083 21.99928037170373 0  2.005258138021443 21.9992591734448 0  3.008019703012843 21.99922969009483 0  4.008113824130637 21.9995564065722 0  5.008017540090526 21.9998837171519 0  6.005833231442538 21.99990680516569 0  7.003804682230832 21.999935208246 0  8.001877405964633 21.99996684348442 0  9 22 0  -9 24 0  -8.001579090398639 24.00007045617988 0  -7.003201034783666 24.00014559801495 0  -6.00490988980216 24.00023030579807 0  -5.006752038331832 24.00032986131396 0  -4.006834366326805 23.99961568274275 0  -3.006753508030925 23.99890077622901 0  -2.004373725632148 23.99893389157458 0  -1.002114884601911 23.99894927911856 0  8.432942644541002e-05 23.99894773775255 0  1.002283583642853 23.99892932446705 0  2.004542527890314 23.99889335738942 0  3.006922425691116 23.99883841080914 0  4.007001041767954 23.99955815537168 0  5.006916682961445 24.00027824040812 0  6.005033610401019 24.00019272595848 0  7.003283613282412 24.00012108590046 0  8.001620401417229 24.00005836279378 0  9 24 0  -9 26 0  -8.001152594666427 26.00014125294911 0  -7.002336352816861 26.0002891191225 0  -6.003583284468077 26.00045040848174 0  -5.004926937494946 26.00063233794856 0  -4.004987687303578 25.99960519531913 0  -3.004929643035677 25.99857748916821 0  -2.003186150416645 25.99863313350209 0  -1.001530895346308 25.99866296480866 0  8.070038063347002e-05 25.9986679199039 0  1.001692094995781 25.99864817026129 0  2.003346729738523 25.99860312216097 0  3.005089132577149 25.99853141571107 0  4.005143619622703 25.9995631300472 0  5.005079963191277 26.00059499361205 0  6.003698708212807 26.00042314950711 0  7.002413597258114 26.00027130317117 0  8.001191297699119 26.00013245179895 0  9 26 0  -9 28 0  -8.000600303610099 28.0001856169616 0  -7.001216895101251 28.00037895898767 0  -6.001866540834244 28.00058795026388 0  -5.002566749203495 28.00082091918788 0  -4.002600161762327 27.99959258414923 0  -3.002570943688384 27.99836395474478 0  -2.001648846862787 27.99843530283802 0  -1.000773727484433 27.99847582552407 0  7.801964826366713e-05 27.99848658503185 0  1.000929405825981 27.99846786350811 0  2.001803422601999 27.99841916295814 0  3.002723615379019 27.99833920416004 0  4.002748483627236 27.99957022446722 0  5.002711649573081 28.00080130849084 0  6.001976156245501 28.000573605282 0  7.001290404670927 28.00036956804141 0  8.00063718236207
[...]
<PointData  Vectors="f_44-0"> 
<DataArray  type="Float64"  Name="f_44-0"  NumberOfComponents="3" format="ascii">0.0000000000000000e+00 0.0000000000000000e+00 0.0000000000000000e+00  9.3978553410853189e-08 -4.1681106236082996e+00 0.0000000000000000e+00  1.7452915186062397e-07 -4.1290510576770494e+00 0.0000000000000000e+00  3.6518372658788958e-07 -3.7442239103171806e+00 0.0000000000000000e+00  0.0000000000000000e+00 0.0000000000000000e+00 0.0000000000000000e+00  0.0000000000000000e+00 0.0000000000000000e+00 0.0000000000000000e+00  0.0000000000000000e+00 0.0000000000000000e+00 0.0000000000000000e+00  0.0000000000000000e+00 0.0000000000000000e+00 0.0000000000000000e+00  0.0000000000000000e+00 0.0000000000000000e+00 0.0000000000000000e+00  0.0000000000000000e+00 0.0000000000000000e+00 0.0000000000000000e+00  0.0000000000000000e+00 0.0000000000000000e+00 0.0000000000000000e+00  0.0000000000000000e+00 0.0000000000000000e+00 0.0000000000000000e+00  0.0000000000000000e+00 0.0000000000000000e+00 0.0000000000000000e+00  0.0000000000000000e+00 0.0000000000000000e+00 0.0000000000000000e+00  0.0000000000000000e+00 0.0000000000000000e+00 0.0000000000000000e+00  9.6904516032834502e-08 -4.1811765781158545e+00 0.0000000000000000e+00  1.7637613315760554e-07 -4.1412148133633035e+00 0.0000000000000000e+00  3.6618002490671038e-07 -3.7539205752854530e+00 0.0000000000000000e+00  0.0000000000000000e+00 0.0000000000000000e+00 0.0000000000000000e+00  0.0000000000000000e+00 0.0000000000000000e+00 0.0000000000000000e+00  -5.9888970311589365e-03 -3.8986878112943661e+00 0.0000000000000000e+00  3.7549416090363634e-03 -4.1249568581693179e+00 0.0000000000000000e+00  2.6952820241210446e-02 -3.9098916558947554e+00 0.0000000000000000e+00  1.5183497724734411e-03 -4.4886156855503026e-04 0.0000000000000000e+00  1.6574596297300930e-03 -9.7817163450213910e-04 0.0000000000000000e+00  9.0535759219313391e-04 -5.6848817014794697e-04 0.0000000000000000e+00  6.8037340043901838e-04 1.0424588262971251e-04 0.0000000000000000e+00  3.8812709383883573e-04 4.7013210380700141e-04 0.0000000000000000e+00  1.4622761277348605e-04 3.8159278730135382e-04 0.0000000000000000e+00  -1.0234843872171398e-04 -6.9615577977162118e-06 0.0000000000000000e+00  -2.9073533021478447e-04 -5.1151078810557089e-04 0.0000000000000000e+00  -5.6492769172677732e-04 -1.2779526462821896e-03 0.0000000000000000e+00  -9.6374001544391095e-04 -1.4557986511311964e-03 0.0000000000000000e+00  -1.6435889510370773e-03 -2.4862896319542776e-03 0.0000000000000000e+00  -6.2192706363163206e-03 -3.9100683493151700e+00 0.0000000000000000e+00  3.9954388113452892e-03 -4.1370521756229488e+00 0.0000000000000000e+00  2.7051438399120130e-02 -3.9216252231405897e+00 0.0000000000000000e+00  0.0000000000000000e+00 0.0000000000000000e+00 0.0000000000000000e+00  0.0000000000000000e+00 0.0000000000000000e+00 0.0000000000000000e+00  1.2206729337620919e-02 -3.9090280986513894e+00 0.0000000000000000e+00  -4.2061364336348755e-03 -4.1107865498566225e+00 0.0000000000000000e+00  1.2137635040130497e-02 -3.9118311352005022e+00 0.0000000000000000e+00  -1.3916650041246959e-03 -2.0019345725334411e-03 0.0000000000000000e+00  -1.1653688628665790e-04 5.2453742414403914e-05 0.0000000000000000e+00  1.7424716803818505e-04 1.6862382023854765e-03 0.0000000000000000e+00  8.0789104438195724e-05 1.7753260831181188e-03 0.0000000000000000e+00  -3.5633822113950985e-04 7.8316988070845290e-04 0.0000000000000000e+00  -5.1068796059887888e-04 -1.2521529557537079e-04 0.0000000000000000e+00  -3.7655625845523557e-04 -2.6543130416398046e-04 0.0000000000000000e+00  3.4559727343432553e-04 -8.5130278681497197e-04 0.0000000000000000e+00  4.8103225773590223e-04 -1.5022585447072333e-03 0.0000000000000000e+00  1.6763765188934987e-04 -7.8277782618574473e-04 0.0000000000000000e+00  -2.4703352896745948e-04 8.8199548106545922e-05 0.0000000000000000e+00  1.2378862334647439e-02 -3.9201947192445861e+00 0.0000000000000000e+00  -4.2428085915833308e-03 -4.1221324059716045e+00 0.0000000000000000e+00  1.1597962326786676e-02 -3.9231019593850163e+00 0.0000000000000000e+00  0.0000000000000000e+00 0.0000000000000000e+00 0.0000000000000000e+00  0.0000000000000000e+00 0.0000000000000000e+00 0.0000000000000000e+00  1.1786960775881811e-02 -3.9115626755808552e+00 0.0000000000000000e+00  -3.4686321751913724e-03 -4.1119062513099234e+00 0.0000000000000000e+00  1.1897984332754966e-02 -3.9103524549247108e+00 0.0000000000000000e+00  -3.0881920875717797e-03 1.9069029891609158e-03 0.0000000000000000e+00  -1.5843584637534049e-03 4.6190475056659842e-03 0.0000000000000000e+00  -1.4855605130873191e-03 3.7930384534493405e-03 0.0000000000000000e+00  -2.4506084680314482e-03 -7.6997304936779443e-04 0.0000000000000000e+00  -1.5188213715400525e-03 -2.8282671317843089e-03 0.0000000000000000e+00  -1.9172029477494210e-04 -1.4490465785965186e-03 0.0000000000000000e+00  8.3552084423546720e-04 -6.7324577016023999e-04 0.0000000000000000e+00  6.3538157246516194e-04 -4.6878550805782128e-04 0.0000000000000000e+00  1.1875352936371469e-03 -4.5341109411638913e-05 0.0000000000000000e+00  1.9395177538442236e-03 -2.3826521522101241e-03 0.0000000000000000e+00  4.5498536177885474e-04 -4.8561085812810455e-03 0.0000000000000000e+00  1.3984091199130987e-02 -3.9215614029918817e+00 0.0000000000000000e+00  -2.7297353286267500e-03 -4.1215790822595810e+00 0.0000000000000000e+00  1.1240889269551361e-02 -3.9201710932108389e+00 0.0000000000000000e+00  0.0000000000000000e+00 0.0000000000000000e+00 0.0000000000000000e+00  0.0000000000000000e+00 0.0000000000000000e+00 0.0000000000000000e+00  1.1054076167242379e-02 -3.9117560730747400e+00 0.0000000000000000e+00  -4.5159303024026763e-03 -4.1136112695242373e+00 0.0000000000000000e+00  1.0052767178175609e-02 -3.9157771042301222e+00 0.0000000000000000e+00  -1.1758960680402141e-02 -2.3261843842052720e-03 0.0000000000000000e+00  -1.3674275932562834e-02 2.6546722640633873e-03 0.0000000000000000e+00  -4.6545390360517554e-03 -5.0339579185725613e-03 0.0000000000000000e+00  -4.3687867742501427e-03 -9.9218026792612032e-03 0.0000000000000000e+00  5.1025121723217038e-04 -5.3369424528230515e-03 0.0000000000000000e+00  2.0209386318100230e-03 -4.5530946628064128e-03 0.0000000000000000e+00  4.8197453457841924e-03 -9.1831339541943533e-03 0.0000000000000000e+00  4.5340996297510679e-03 -1.5720534016276711e-03 0.0000000000000000e+00  1.7047024192522291e-02 -5.8599642852655443e-03 0.0000000000000000e+00  1.8388459601573887e-02 -1.4802790327868343e-02 0.0000000000000000e+00  1.1485528162866895e-02 -1.3690544256965533e-02 0.0000000000000000e+00  1.5192990536635403e-02 -3.9199898287746264e+00 0.0000000000000000e+00  -1.1231348280434407e-03 -4.1193491717877162e+00 0.0000000000000000e+00  1.1945801087503042e-02 -3.9174732860120995e+00 0.0000000000000000e+00  0.0000000000000000e+00 0.0000000000000000e+00 0.0000000000000000e+00  0.0000000000000000e+00 0.0000000000000000e+00 0.0000000000000000e+00  9.5494312990853335e-03 -3.9075589439977620e+00 0.0000000000000000e+00  -9.7104328202535679e-03 -4.1081607105443076e+00 0.0000000000000000e+00  -2.8974781317976346e-03 -3.9064836017647186e+00 0.0000000000000000e+00  -5.2315911285585555e-02 1.8907428709036000e-02 0.0000000000000000e+00  -4.0445882338646023e-02 1.2965851290199231e-02 0.0000000000000000e+00  -2.1914524586853730e-02 7.9911082010315545e-03 0.0000000000000000e+00  1.4403695363392540e-03 -1.8105837674151703e-02 0.0000000000000000e+00  1.6841613867876444e-03 -7.1599973042491263e-03 0.0000000000000000e+00  4.6656458835157453e-03 -5.1399964083430642e-03 0.0000000000000000e+00  7.3170864534763819e-03 -5.4899485357381358e-03 0.0000000000000000e+00  6.7343432158074147e-03 -6.1025052240725498e-03 0.0000000000000000e+00  3.4826478694142640e-02 -9.9053914479218554e-03 0.0000000000000000e+00  4.2556167967613516e-02 -1.8586314537492505e-02 0.0000000000000000e+00  4.4405752780830775e-02 -2.2385423380938789e-02 0.0000000000000000e+00  2.2309455164257211e-02 -3.9161867186990085e+00 0.0000000000000000e+00  7.5764007288837715e-04 -4.1150085136445442e+00 0.0000000000000000e+00  1.2435476701695923e-02 -3.9132631000729377e+00 0.0000000000000000e+00  0.0000000000000000e+00 0.0000000000000000e+00 0.0000000000000000e+00  0.0000000000000000e+00 0.0000000000000000e+00 0.0000000000000000e+00  9.3536317739386938e-03 -3.9010894216480470e+00 0.0000000000000000e+00  -1.0041723401447660e-02 -4.1013406316681706e+00 0.0000000000000000e+00  1.0946302099940901e-03 -3.9015686961083422e+00 0.0000000000000000e+00  -2.8524180092218163e-02 1.1187722081097603e-02 0.0000000000000000e+00  -3.7635343006122431e-02 1.4933384359205373e-02 0.0000000000000000e+00  -5.0918172586778651e-02 3.0184578003611941e-02 0.0000000000000000e+00  -1.9757633794036129e-02 -2.5662829986983843e-02 0.0000000000000000e+00  -6.8731377392775130e-03 -2.5944760721559160e-02 0.0000000000000000e+00  2.5606537605784049e-03 -2.3945383997796072e-02 0.0000000000000000e+00  9.2338241932074239e-03 -2.4010786593059275e-02 0.0000000000000000e+00  9.4847459247675691e-03 -2.5891988862003827e-02 0.0000000000000000e+00  2.0312429705448633e-02 -1.4315729589606831e-02 0.0000000000000000e+00  3.2757260717928532e-02 -1.2325843494750154e-02 0.0000000000000000e+00  4.3126605633567350e-02 -3.7287613651172803e-03 0.0000000000000000e+00  2.4884377063790899e-02 -3.9122177397395292e+00 0.0000000000000000e+00  1.0019627876371749e-04 -4.1099150698276476e+00 0.0000000000000000e+00  1.2133248936097879e-02 -3.9080619395082041e+00 0.0000000000000000e+00  0.0000000000000000e+00 0.0000000000000000e+00 0.0000000000000000e+00  0.0000000000000000e+00 0.0000000000000000e+00 0.0000000000000000e+00  9.4385250128953962e-03 -3.8932278861810032e+00 0.0000000000000000e+00  -1.0306269853273891e-02 -4.0936015977267175e+00 0.0000000000000000e+00  7.1154809858635186e-04 -3.8936619078733683e+00 0.0000000000000000e+00  -2.0044483615701040e-03 -1.1929627501681178e-03 0.0000000000000000e+00  -7.7919943432255591e-03 -1.5226596779463542e-03 0.0000000000000000e+00  -1.0921303733006923e-02 -9.2136523896597568e-03 0.0000000000000000e+00  -7.1477878921350291e-03 -3.7935286486186832e-02 0.0000000000000000e+00  -2.4118180646726397e-03 -3.8358841079809775e-02 0.0000000000000000e+00  2.4886781275137030e-03 -3.7441286639817696e-02 0.0000000000000000e+00  7.6633458597357811e-03 -3.7025204448077935e-02 0.0000000000000000e+00  1.1462705256109759e-02 -3.5444234932833052e-02 0.0000000000000000e+00  3.6090553193558264e-03 4.5822956945077451e-04 0.0000000000000000e+00  9.2208665453558658e-03 7.1114442462014333e-04 0.0000000000000000e+00  1.2290516290250261e-02 -1.8130382560518669e-03 0.0000000000000000e+00  2.0704077647574384e-02 -3.9053721499345078e+00 0.0000000000000000e+00  6.0186525184427843e-04 -4.1048162957396253e+00 0.0000000000000000e+00  1.2063991278385972e-02 -3.9021247444037361e+00 0.0000000000000000e+00  0.0000000000000000e+00 0.0000000000000000e+00 0.0000000000000000e+00  0.0000000000000000e+00 0.0000000000000000e+00 0.0000000000000000e+00  9.3785114078349524e-03 -3.8837931999031090e+00 0.0000000000000000e+00  -1.0985210603680105e-02 -4.0845400493248771e+00 0.0000000000000000e+00  3.1776383232881426e-04 -3.8842989989188790e+00 0.0000000000000000e+00  1.1277641297161233e-02 -1.1786522717472310e-02 0.0000000000000000e+00  6.7220038779756529e-03 -1.1893329762000162e-02 0.0000000000000000e+00  2.4537636044142819e-03 -1.1428229189723084e-02 0.0000000000000000e+00  -8.7318023122903120e-03 -4.7151040976324297e-02 0.0000000000000000e+00  -3.5413855116999504e-03 -4.8750462154108137e-02 0.0000000000000000e+00  2.5575154914832124e-03 -4.9284784826195027e-02 0.0000000000000000e+00  8.5832641183410992e-03 -4.9031786806116251e-02 0.0000000000000000e+00  1.2039355130834631e-02 -4.7434209930283640e-02 0.0000000000000000e+00  -1.0255574010783473e-02 9.3924000049535987e-03 0.0000000000000000e+00  -6.2126889094640319e-03 8.4522506218449502e-03 0.0000000000000000e+00  -2.1977056092748917e-03 9.3082512240412908e-03 0.0000000000000000e+00  1.9724443084563826e-02 -3.8978472261240102e+00 0.0000000000000000e+00  1.3751569527739932e-03 -4.0978738455136483e+00 0.0000000000000000e+00  1.2351859497250154e-02 -3.8944847222588477e+00 0.0000000000000000e+00  0.0000000000000000e+00 0.0000000000000000e+00 0.0000000000000000e+00  0.0000000000000000e+00 0.0000000000000000e+00 0.0000000000000000e+00  9.1442436207399246e-03 -3.8725883452511365e+00 0.0000000000000000e+00  -1.1907140610019649e-02 -4.0738400650678859e+00 0.0000000000000000e+00  -9.5096622753976787e-04 -3.8726574300842915e+00 0.0000000000000000e+00  1.7700129930783657e-02 -1.7435220444013366e-02 0.0000000000000000e+00  1.5087503089502416e-02 -1.6831080986079685e-02 0.0000000000000000e+00  1.3607897845190151e-02 -1.7069749384233356e-02 0.0000000000000000e+00  -9.4986814488647094e-03 -6.3003164707435541e-02 0.0000000000000000e+00  -4.8061456391836231e-03 -6.2380678372438908e-02 0.0000000000000000e+00  2.1164921624250627e-03 -6.2814659908476803e-02 0.0000000000000000e+00  8.8682664293589699e-03 -6.2725470526540386e-02 0.0000000000000000e+00  1.2612744909555260e-02 -6.2333978970926844e-02 0.0000000000000000e+00  -1.6127121161459288e-02 1.4815995141424221e-02 0.0000000000000000e+00  -1.3503096156447240e-02 1.4174181573136102e-02 0.0000000000000000e+00  -1.1937109765993522e-02 1.4206791081756646e-02 0.0000000000000000e+00  2.0904615433207926e-02 -3.8865764953401571e+00 0.0000000000000000e+00  3.1816231304676217e-03 -4.0882619179034094e+00 0.0000000000000000e+00  1.3046878150568304e-02 -3.8841849411609437e+00 0.0000000000000000e+00  0.0000000000000000e+00 0.0000000000000000e+00 0.0000000000000000e+00  0.0000000000000000e+00 0.0000000000000000e+00 0.0000000000000000e+00  8.8909000516743230e-03 -3.8599542374557791e+00 0.0000000000000000e+00  -1.2602661488759492e-02 -4.0617661219802041e+00 0.0000000000000000e+00  -1.9613721183692474e-03 -3.8591464175558876e+00 0.0000000000000000e+00  1.9449832635181716e-02 -1.9343085238583319e-02 0.0000000000000000e+00  1.8480612309002418e-02 -1.9213737536971118e-02 0.0000000000000000e+00  1.8411726277095631e-02 -1.9751825820585704e-02 0.0000000000000000e+00  -1.0131727813853386e-02 -8.0123751840273094e-02 0.0000000000000000e+00  -5.7059653434487767e-03 -7.7623700319136207e-02 0.0000000000000000e+00  1.5678541122244108e-03 -7.7879631238766137e-02 0.0000000000000000e+00  8.7388087273325803e-03 -7.7911448023947560e-02 0.0000000000000000e+00  1.3001917156012619e-02 -7.9110457039635082e-02 0.0000000000000000e+00  -1.7254828519851825e-02 1.6623155303474475e-02 0.0000000000000000e+00  -1.6335255809962680e-02 1.6251738471428360e-02 0.0000000000000000e+00  -1.6398480333176955e-02 1.6473004932191202e-02 0.0000000000000000e+00  2.1972810660437755e-02 -3.8722568885469100e+00 0.0000000000000000e+00  4.5720601959079931e-03 -4.0758266966265415e+00 0.0000000000000000e+00  1.3666963563967292e-02 -3.8713170563790373e+00 0.0000000000000000e+00  -1.5609963059980355e-11 1.5648872332653457e-10 0.0000000000000000e+00  0.0000000000000000e+00 0.0000000000000000e+00 0.0000000000000000e+00  8.7828264058773461e-03 -3.8468033593596238e+00 0.0000000000000000e+00  -1.2643665363923069e-02 -4.0492040216141465e+00 0.0000000000000000e+00  -1.9900889516834726e-03 -3.8449271319730269e+00 0.0000000000000000e+00  1.7966355839283004e-02 -1.8438972448394209e-02 0.0000000000000000e+00  1.8348634162264340e-02 -1.8912070698954515e-02 0.0000000000000000e+00  1.9606089897146059e-02 -1.9889040373702160e-02 0.0000000000000000e+00  -9.8812757230767601e-03 -9.7519990023382852e-02 0.0000000000000000e+00  -5.9417545691733695e-03 -9.3130494869153230e-02 0.0000000000000000e+00  1.0743054061156780e-03 -9.3173811354651387e-02 0.0000000000000000e+00  8.0369849340193884e-03 -9.3327314104503387e-02 0.0000000000000000e+00  1.2509119163513631e-02 -9.6349880888445497e-02 0.0000000000000000e+00  -1.5273709638914510e-02 1.5529628648876758e-02 0.0000000000000000e+00  -1.5719396484324199e-02 1.5800401459187645e-02 0.0000000000000000e+00  -1.7035323295985835e-02 1.6592292080538026e-02 0.0000000000000000e+00  2.2593067071068604e-02 -3.8564582179905833e+00 0.0000000000000000e+00  5.2725209665150288e-03 -4.0617689629872720e+00 0.0000000000000000e+00  1.4056754958245297e-02 -3.8569517675242384e+00 0.0000000000000000e+00  0.0000000000000000e+00 0.0000000000000000e+00 0.0000000000000000e+00  0.0000000000000000e+00 0.0000000000000000e+00 0.0000000000000000e+00  8.9162073286952505e-03 -3.8343860103638878e+00 0.0000000000000000e+00  -1.1832982863439126e-02 -4.0373668561550033e+00 0.0000000000000000e+00  -7.2988252315757060e-04 -3.8314708893358209e+00 0.0000000000000000e+00  1.4396610059337111e-02 -1.5347958518025241e-02 0.0000000000000000e+00  1.5898705009849860e-02 -1.6477431837065425e-02 0.0000000000000000e+00  1.8119279220571455e-02 -1.7992477455383599e-02 0.0000000000000000e+00  -8.4846977170915227e-03 -1.1340419178666375e-01 0.0000000000000000e+00  -5.3597265703807604e-03 -1.0737867053447031e-01 0.0000000000000000e+00  6.8613690095465632e-04 -1.0721777766184992e-01 0.0000000000000000e+00  6.7263652007543201e-03 -1.0749416397135826e-01 0.0000000000000000e+00  1.0940257268237375e-02 -1.1229906444346575e-01 0.0000000000000000e+00  -1.1300130388077418e-02 1.2286837078568206e-02 0.0000000000000000e+00  -1.2859248698483899e-02 1.3261274051914525e-02 0.0000000000000000e+00  -1.5143502008692347e-02 1.4615917640659285e-02 0.0000000000000000e+00  2.2271061131613205e-02 -3.8407366230279996e+00 0.0000000000000000e+00  5.0828820967152803e-03 -4.0475277495139634e+00 0.0000000000000000e+00  1.4135685278726853e-02 -3.8425380647659715e+00 0.0000000000000000e+00  0.0000000000000000e+00 0.0000000000000000e+00 0.0000000000000000e+00  0.0000000000000000e+00 0.0000000000000000e+00 0.0000000000000000e+00  9.3194657517150191e-03 -3.8240200354594993e+00 0.0000000000000000e+00  -1.0165494804929511e-02 -4.0275253177627990e+00 0.0000000000000000e+00  1.8281601355549404e-03 -3.8202590765599749e+00 0.0000000000000000e+00  9.5911378713375538e-03 -1.0734538760603254e-02 0.0000000000000000e+00  1.1944680068439307e-02 -1.2441448166919840e-02 0.0000000000000000e+00  1.4805431776922257e-02 -1.4405699648938444e-02 0.0000000000000000e+00  -6.0209362275616199e-03 -1.2609088107443936e-01 0.0000000000000000e+00  -4.0291926081721377e-03 -1.1886082549259123e-01 0.0000000000000000e+00  4.1008565008002163e-04 -1.1854140149892169e-01 0.0000000000000000e+00  4.8752827694122586e-03 -1.1892319050288513e-01 0.0000000000000000e+00  8.3409723540892322e-03 -1.2524175283318859e-01 0.0000000000000000e+00  -6.1920988384977496e-03 7.5505897083265206e-03 0.0000000000000000e+00  -8.5984021372104077e-03 9.1497688287234275e-03 0.0000000000000000e+00  -1.1518783424771558e-02 1.1003840823443885e-02 0.0000000000000000e+00  2.0866290121185394e-02 -3.8267607955087586e+00 0.0000000000000000e+00  3.9643752115468157e-03 -4.0345959032736873e+00 0.0000000000000000e+00  1.3881510375941469e-02 -3.8295887994210331e+00 0.0000000000000000e+00  0.0000000000000000e+00 0.0000000000000000e+00 0.0000000000000000e+00  0.0000000000000000e+00 0.0000000000000000e+00 0.0000000000000000e+00  9.9684929377152898e-03 -3.8168687952379310e+00 0.0000000000000000e+00  -7.7803736255661338e-03 -4.0207928177295322e+00 0.0000000000000000e+00  5.4652708141982084e-03 -3.8125661597962970e+00 0.0000000000000000e+00  4.1634953172307873e-03 -5.2209261027059565e-03 0.0000000000000000e+00  7.0904284328255473e-03 -7.3268363773955946e-03 0.0000000000000000e+00  1.0275596620632769e-02 -9.5626019491811438e-03 0.0000000000000000e+00  -2.7374776644860177e-03 -1.3423516511719999e-01 0.0000000000000000e+00  -2.1133779726614172e-03 -1.2634631127594023e-01 0.0000000000000000e+00  2.4425161553564884e-04 -1.2592619306337735e-01 0.0000000000000000e+00  2.6410140805095974e-03 -1.2637677397739744e-01 0.0000000000000000e+00  4.9482289866367513e-03 -1.3376595581077522e-01 0.0000000000000000e+00  -5.7569995286462731e-04 1.9467489909691710e-03 0.0000000000000000e+00  -3.5484946216845004e-03 3.9978837294344692e-03 0.0000000000000000e+