<?xml version="1.0"?>
<VTKFile type="UnstructuredGrid"  version="0.1"  >
<UnstructuredGrid>
<Piece  NumberOfPoints="589" NumberOfCells="1080">
<Points>
<DataArray  type="Float64"  NumberOfComponents="3"  format="ascii">-9 0 0  -8 0 0  -7 0 0  -6 0 0  -5 0 0  -4 0 0  -3 0 0  -2 0 0  -1 0 0  0 0 0  1 0 0  2 0 0  3 0 0  4 0 0  5 0 0  6 0 0  7 0 0  8 0 0  9 0 0  -9 2 0  -8.000003233785312 1.99999546205958 0  -7.000006794726356 1.999991446610712 0  -6.000011407849026 1.999988373646413 0  -5.000018693990145 1.999986413627892 0  -4.000011502972995 1.999989956903703 0  -3.000004031028488 1.999993118997315 0  -2.000000255851034 1.999996001270821 0  -0.999999352638399 1.99999827534143 0  -2.441087360772805e-07 1.99999927996854 0  0.9999987205019177 1.999998622491405 0  1.999999136721939 1.99999646981893 0  3.000002080126976 1.999993817749935 0  4.000007886292759 1.999990969176472 0  5.000016197301567 1.999989801521621 0  6.000009751255109 1.999990301223523 0  7.000005771934297 1.999992549176964 0  8.000002744365922 1.999995975131688 0  9 2 0  -9 4 0  -8.000005158916528 3.999988834265954 0  -7.000009380724947 3.999979123368778 0  -6.000012123602625 3.999972295555775 0  -5.000013511117844 3.999969719916844 0  -4.000003275446613 3.999971313398819 0  -2.999996273278714 3.999979922562027 0  -1.999994139487492 3.999991108194456 0  -0.9999962315588073 4.000000087515271 0  -6.404789260704587e-07 4.000003736125584 0  0.9999948365107982 4.000001005075132 0  1.999992359266195 3.999993515068894 0  2.999994078311667 3.999983363812201 0  4.000000625877374 3.999973196947363 0  5.000010382016234 3.999969893414518 0  6.000009635568797 3.999973609509718 0  7.000007736825228 3.999980386463537 0  8.000004355874749 3.999989554728447 0  9 4 0  -9 6 0  -8.000010832344834 5.999976387651622 0  -7.000017882442181 5.999955268272195 0  -6.000018260827908 5.999939209221667 0  -5.000011134071777 5.999930679177978 0  -3.999991556935251 5.999943337948153 0  -2.999982466975906 5.999969723635849 0  -1.999985558636398 5.999997366292684 0  -0.9999938038386958 6.000012751336119 0  -2.142942541817676e-06 6.000015902468427 0  0.9999904247369311 6.000010993929465 0  1.999984876351357 5.999997383341062 0  2.999983014644341 5.999974429054787 0  3.999987845171213 5.999950679456151 0  5.000004427001045 5.999939065513523 0  6.000014129073626 5.999944674792019 0  7.000015630416065 5.999958659005224 0  8.000009866883563 5.999978026777497 0  9 6 0  -9 8 0  -8.000031632430604 7.999953971537867 0  -7.000053070137535 7.999911174403903 0  -6.000054418168438 7.999876009350388 0  -5.000027164612523 7.999855747916838 0  -3.999989720960469 7.99991388166611 0  -2.999996263018998 7.999982198461117 0  -2.000009947405946 8.00001554891306 0  -1.000010873026155 8.000019436482132 0  -2.315319825062814e-06 8.000020562150414 0  1.000004213134224 8.000023801585375 0  2.000002012708285 8.000010042301849 0  2.999986391542609 7.999986515274394 0  3.999981511688776 7.999928594100332 0  5.00001812411551 7.99986335653435 0  6.000051423756551 7.999882243754943 0  7.000052581503102 7.99991539993048 0  8.000031789568126 7.999956079016853 0  9 8 0  -9 10 0  -8.00009319961981 9.999918639649234 0  -7.000168606614899 9.99983656693666 0  -6.000204969873772 9.999753219259402 0  -5.000172674077656 9.999668379916756 0  -4.000113548826792 9.999855421972667 0  -3.000122595802194 10.00001641288012 0  -2.000098162424029 9.999989075634824 0  -1.00004604874655 9.999980309388929 0  -7.592078459387037e-06 9.999978183257713 0  1.000030497892101 9.999978322796785 0  2.00008089989542 9.999977257332901 0  3.000125731083382 10.0000339254383 0  4.000121057834597 9.999883028089169 0  5.000187393669989 9.999684315413022 0  6.000217261348965 9.999762755951847 0  7.000177315779927 9.999842059890009 0  8.000097692590133 9.999921170467161 0  9 10 0  -9 12 0  -8.000225883006907 11.9998861774092 0  -7.000440229576373 11.99976709332344 0  -6.000629985073769 11.99963645480089 0  -5.000778991793839 11.99948548147257 0  -4.000748814573835 11.99982561054169 0  -3.000775530602568 12.00016242099947 0  -2.000534390817675 12.00012144893541 0  -1.000266445986594 12.00009905890597 0  1.172516570741164e-05 12.00009427917547 0  1.000292873234715 12.0001077734334 0  2.000570977562595 12.0001435917311 0  3.000833978538138 12.0002119153162 0  4.000806314591999 11.99985183456066 0  5.000825271309957 11.99948890067896 0  6.000662231654393 11.99963985805926 0  7.000460700237866 11.9997695201043 0  8.00023583618095 11.99988740274592 0  9 12 0  -9 14 0  -8.000404600455589 13.99987478385346 0  -7.000810038361123 13.99974387669726 0  -6.001217690532877 13.99960108677477 0  -5.001630382642036 13.99943924396922 0  -4.00163444143863 13.99983588772876 0  -3.001636309492043 14.00023760561395 0  -2.001078049259749 14.00017953618939 0  -1.000527841949344 14.00014740416273 0  1.915799123007097e-05 14.00013731284008 0  1.000567582220387 14.00014796905795 0  2.00112177234747 14.00017996433904 0  3.001685244983974 14.0002350591063 0  4.001690653749971 13.99983761129473 0  5.001693023154461 13.99944270637536 0  6.001260904779258 13.99960222794014 0  7.000837260572218 13.99974414952554 0  8.000417771773272 13.99987480479532 0  9 14 0  -9 16 0  -8.000579816126805 15.99988616930031 0  -7.001170740153324 15.99976822278824 0  -6.001784834369708 15.99964197777029 0  -5.002436153467356 15.99950319336041 0  -4.002459007312066 15.99984098143967 0  -3.002436838609042 16.00017693938259 0  -2.001589886720772 16.00013399495971 0  -1.000776581176456 16.00010768390174 0  2.089731716092727e-05 16.00009744395443 0  1.000819405020797 16.00010289444559 0  2.001635814455366 16.00012402472956 0  3.002488082770662 16.00016110888362 0  4.002513169585613 15.99982714932215 0  5.002491916782388 15.99949291031182 0  6.001825237124459 15.99963505517917 0  7.00119693037511 15.99976388455526 0  8.000592678877771 15.99988406831026 0  9 16 0  -9 18 0  -8.000710439430911 17.99991402170313 0  -7.001438476002654 17.99982577821452 0  -6.00220261985287 17.99973305094054 0  -5.003023217347796 17.99963373183359 0  -4.003057763865056 17.99984189603451 0  -3.003024130024206 18.00004977428656 0  -2.001967635121436 18.00002201797336 0  -1.000962246178817 18.00000378088856 0  1.850835260928469e-05 17.99999491376481 0  1.000999828290511 17.99999519870841 0  2.002006879437245 18.00000436325693 0  3.003066014114092 18.00002203002478 0  4.00310168493152 17.99981913473083 0  5.003068183648915 17.99961683905762 0  6.002235574212972 17.99972118033126 0  7.001460063153599 17.99981822416541 0  8.00072111517499 17.99991034795082 0  9 18 0  -9 20 0  -8.000770526691186 19.99995093205252 0  -7.00156149160481 19.99990127197354 0  -6.002394112082165 19.99985049922361 0  -5.003291166795177 19.99979823817515 0  -4.003330518493364 19.99984146763826 0  -3.003291478281648 19.99988441944118 0  -2.002141516597844 19.99987203512496 0  -1.001049638869524 19.99986247154331 0  1.384493541544263e-05 19.99985584851368 0  1.001077563597205 19.99985205514904 0  2.002170128820674 19.99985075785155 0  3.00332118332483 19.99985138134594 0  4.003360917561243 19.99981483509085 0  5.003322022989501 19.99977872119691 0  6.002417003223177 19.99983650440311 0  7.001576626780452 19.99989224818829 0  8.000778055228775 19.99994651171427 0  8.999999999993783 20.00000000000394 0  -9 22 0  -8.000748725677123 21.99999020766989 0  -7.001517597176669 21.99998121505533 0  -6.002327386223929 21.99997390017396 0  -5.003200114723657 21.99996929903783 0  -4.003238520975679 21.99983945199137 0  -3.003200233990339 21.99970933678593 0  -2.0020836232166 21.99971079178905 0  -1.001023721329331 21.99970942475913 0  8.24022668713039e-06 21.99970548932888 0  1.001040173470832 21.99969894986873 0  2.002099976099517 21.9996894870786 0  3.003216374176254 21.99967649287926 0  4.003254352794036 21.99981311792202 0  5.003215812865189 21.99995003225378 0  6.002339367002339 21.999959983641 0  7.001525675144414 21.99997218985485 0  8.00075278995806 21.99998577063045 0  9 22 0  -9 24 0  -8.00064620362528 24.00002628403265 0  -7.001309740531685 24.00005444638081 0  -6.002008416894786 24.00008644408534 0  -5.002760970335885 24.00012439356654 0  -4.002793943212762 23.99983617755967 0  -3.002761168854352 23.99954775493656 0  -2.0017994363266 23.99956081357658 0  -1.000886292940851 23.99956662982424 0  2.761181796758307e-06 23.99956552422754 0  1.000891582311761 23.99955751414029 0  2.001804013384927 23.9995423146952 0  3.002764514340654 23.99951933679597 0  4.002796182570161 23.99981349443441 0  5.002762662880238 24.00010786597699 0  6.002010243728819 24.00007444004167 0  7.001311216736173 24.00004663050702 0  8.000647016923837 24.00002243223023 0  9 24 0  -9 26 0  -8.000474192679944 26.00005484952691 0  -7.000961020104608 26.00011233736136 0  -6.001473438186703 26.00017517993306 0  -5.002025021022413 26.00024625193909 0  -4.002049202163402 25.99983200011962 0  -3.00202551645115 25.99941760996022 0  -2.001321413977953 25.99943975758047 0  -1.000652743622481 25.99945147255666 0  -1.763844543279594e-06 25.99945312664084 0  1.000648833658188 25.9994447838554 0  2.001316344169295 25.99942620154707 0  3.00201846773758 25.99939682769277 0  4.002040478590557 25.99981546588001 0  5.002015455798693 26.00023424417751 0  6.001467083743069 26.00016643103639 0  7.000957166030013 26.00010662733663 0  8.00047237802379 26.0000520313062 0  9 26 0  -9 28 0  -8.000251463310233 28.00007286473249 0  -7.000509608251743 28.00014881091053 0  -6.000781286333013 28.00023099776382 0  -5.001073655586366 28.00032274092447 0  -4.001086809649463 27.99982733045253 0  -3.001074593491768 27.99933186558726 0  -2.000702172373992 27.99936038032494 0  -1.000348664332494 27.99937650634132 0  -4.737434505546506e-06 27.99938066293708 0  1.000338714693342 27.99937295908658 0  2.0006907840284 27.99935319534427 0  3.001060760577478 27.99932086355467 0  4.001070961324141 27.99981860284041 0  5.001056793706722 28.00031642702491 0  6.000769623375275 28.00022638832644 0  7.000502293232885 28.00014579800395 0  8.00024794
[...]
<PointData  Vectors="f_44-0"> 
<DataArray  type="Float64"  Name="f_44-0"  NumberOfComponents="3" format="ascii">0.0000000000000000e+00 0.0000000000000000e+00 0.0000000000000000e+00  -4.7489872704593836e-09 -1.0568343631819845e+00 0.0000000000000000e+00  5.7507040074622021e-08 -1.0410761317948041e+00 0.0000000000000000e+00  1.0020750723092455e-07 -8.8743786691442217e-01 0.0000000000000000e+00  0.0000000000000000e+00 0.0000000000000000e+00 0.0000000000000000e+00  0.0000000000000000e+00 0.0000000000000000e+00 0.0000000000000000e+00  0.0000000000000000e+00 0.0000000000000000e+00 0.0000000000000000e+00  0.0000000000000000e+00 0.0000000000000000e+00 0.0000000000000000e+00  0.0000000000000000e+00 0.0000000000000000e+00 0.0000000000000000e+00  0.0000000000000000e+00 0.0000000000000000e+00 0.0000000000000000e+00  0.0000000000000000e+00 0.0000000000000000e+00 0.0000000000000000e+00  0.0000000000000000e+00 0.0000000000000000e+00 0.0000000000000000e+00  0.0000000000000000e+00 0.0000000000000000e+00 0.0000000000000000e+00  0.0000000000000000e+00 0.0000000000000000e+00 0.0000000000000000e+00  0.0000000000000000e+00 0.0000000000000000e+00 0.0000000000000000e+00  -4.3650521714465283e-09 -1.0603883851464917e+00 0.0000000000000000e+00  5.8065274029043806e-08 -1.0442648856677437e+00 0.0000000000000000e+00  9.9146574629567254e-08 -8.8938670860336155e-01 0.0000000000000000e+00  0.0000000000000000e+00 0.0000000000000000e+00 0.0000000000000000e+00  0.0000000000000000e+00 0.0000000000000000e+00 0.0000000000000000e+00  3.9203775810776680e-04 -9.5265472660920603e-01 0.0000000000000000e+00  2.3164602421417249e-03 -1.0384224257209416e+00 0.0000000000000000e+00  7.9842754047200828e-03 -9.5595942349107565e-01 0.0000000000000000e+00  5.4473351260873502e-04 -3.2847160475045630e-04 0.0000000000000000e+00  6.7666458777990482e-04 -5.3884737965441485e-04 0.0000000000000000e+00  4.1128897261036139e-04 -3.3465526280523065e-04 0.0000000000000000e+00  3.4076364972455297e-04 -8.7060126063715310e-06 0.0000000000000000e+00  2.0377772121534120e-04 1.7565915766895463e-04 0.0000000000000000e+00  6.5859334639605395e-05 1.5268490424400383e-04 0.0000000000000000e+00  -7.6521111506414218e-05 -1.9198340329429655e-05 0.0000000000000000e+00  -1.7514176119280112e-04 -2.5974678205535330e-04 0.0000000000000000e+00  -2.7838876018189228e-04 -6.1518987536785701e-04 0.0000000000000000e+00  -3.9940979980282931e-04 -7.2040237927486290e-04 0.0000000000000000e+00  -6.2109211481204503e-04 -1.1853886472152173e-03 0.0000000000000000e+00  5.2386725830274531e-04 -9.5549143695708139e-01 0.0000000000000000e+00  2.5292632801575390e-03 -1.0415429612379370e+00 0.0000000000000000e+00  8.1999961959830486e-03 -9.5879018458407494e-01 0.0000000000000000e+00  0.0000000000000000e+00 0.0000000000000000e+00 0.0000000000000000e+00  0.0000000000000000e+00 0.0000000000000000e+00 0.0000000000000000e+00  3.5805307995486692e-03 -9.5643881697496769e-01 0.0000000000000000e+00  -6.0588634695272266e-04 -1.0332163894069359e+00 0.0000000000000000e+00  3.7396431505639467e-03 -9.5774956859852167e-01 0.0000000000000000e+00  -6.7349561155680604e-04 -1.1699705567500191e-03 0.0000000000000000e+00  -1.4983556982786490e-05 -2.7798626423541814e-04 0.0000000000000000e+00  1.8067135747468612e-04 5.3117043174138632e-04 0.0000000000000000e+00  1.5233343975187797e-04 7.0364178862684262e-04 0.0000000000000000e+00  -8.2754888150316652e-05 3.9746466749529454e-04 0.0000000000000000e+00  -2.2842567975456872e-04 5.9879367412558880e-05 0.0000000000000000e+00  -2.5331035834462120e-04 -3.6867171641798855e-05 0.0000000000000000e+00  -5.3303134796890968e-06 -3.7676118282022075e-04 0.0000000000000000e+00  5.0097938961390924e-05 -7.7383741462141921e-04 0.0000000000000000e+00  -1.6746280409526316e-05 -5.9557593814980566e-04 0.0000000000000000e+00  -7.4817344846720514e-05 -2.4581444134482095e-04 0.0000000000000000e+00  3.8510369985847726e-03 -9.5919346855013543e-01 0.0000000000000000e+00  -3.8958636126823308e-04 -1.0360060674844869e+00 0.0000000000000000e+00  3.8307613314303756e-03 -9.6040791435771333e-01 0.0000000000000000e+00  0.0000000000000000e+00 0.0000000000000000e+00 0.0000000000000000e+00  0.0000000000000000e+00 0.0000000000000000e+00 0.0000000000000000e+00  3.3147954810575191e-03 -9.5716525749688375e-01 0.0000000000000000e+00  -8.3703144418071208e-04 -1.0335573431979099e+00 0.0000000000000000e+00  3.2421881190270521e-03 -9.5772816168314023e-01 0.0000000000000000e+00  -1.3547479860705066e-03 5.8678298115318010e-06 0.0000000000000000e+00  -4.8413725774651954e-04 1.3217964749285475e-03 0.0000000000000000e+00  -3.4111529221655772e-04 1.3194628056493922e-03 0.0000000000000000e+00  -8.1073331894291820e-04 -2.4213941391254816e-04 0.0000000000000000e+00  -5.4813926395878474e-04 -9.0663658368599141e-04 0.0000000000000000e+00  -1.1726354793900910e-04 -2.9105075059746927e-04 0.0000000000000000e+00  1.9696506287717692e-04 -2.4791470083542601e-05 0.0000000000000000e+00  1.7216157038930907e-05 -1.1588944986811372e-04 0.0000000000000000e+00  2.0302174400811215e-04 -2.4121599183527420e-04 0.0000000000000000e+00  5.7574755943357871e-04 -1.5307904283887296e-03 0.0000000000000000e+00  1.5646631309912967e-04 -2.7201690369323892e-03 0.0000000000000000e+00  4.5063669951726070e-03 -9.5972395639340646e-01 0.0000000000000000e+00  8.8901173797838420e-05 -1.0356837375896017e+00 0.0000000000000000e+00  3.7068423181359825e-03 -9.5924744771915349e-01 0.0000000000000000e+00  0.0000000000000000e+00 0.0000000000000000e+00 0.0000000000000000e+00  0.0000000000000000e+00 0.0000000000000000e+00 0.0000000000000000e+00  2.6065472481010951e-03 -9.5629635389883416e-01 0.0000000000000000e+00  -2.0649584295779635e-03 -1.0334972723138334e+00 0.0000000000000000e+00  9.2115025475211277e-04 -9.5797718372683227e-01 0.0000000000000000e+00  -5.2826091740836240e-03 -2.7288065688863918e-03 0.0000000000000000e+00  -5.5797389137392924e-03 1.3438703716215538e-04 0.0000000000000000e+00  -1.8823389222065777e-03 -2.2018228812556015e-03 0.0000000000000000e+00  -1.9520906247080729e-03 -3.8152737588929668e-03 0.0000000000000000e+00  7.4969675751998893e-05 -1.8423730036608854e-03 0.0000000000000000e+00  8.1606826010017716e-04 -1.4996525408160896e-03 0.0000000000000000e+00  2.0603341339711467e-03 -3.3836519922157901e-03 0.0000000000000000e+00  1.9232545184437824e-03 -3.9774744301915841e-04 0.0000000000000000e+00  6.9523124004658926e-03 -2.4819659698586075e-03 0.0000000000000000e+00  7.4187796023234050e-03 -6.9736051883309792e-03 0.0000000000000000e+00  4.9873759443255072e-03 -7.3678793937943521e-03 0.0000000000000000e+00  5.7443071664811749e-03 -9.5909914125545737e-01 0.0000000000000000e+00  1.2252440606465916e-03 -1.0343677454946087e+00 0.0000000000000000e+00  4.2540706375017202e-03 -9.5766303232391170e-01 0.0000000000000000e+00  0.0000000000000000e+00 0.0000000000000000e+00 0.0000000000000000e+00  0.0000000000000000e+00 0.0000000000000000e+00 0.0000000000000000e+00  1.1336801745292372e-03 -9.5269133301988684e-01 0.0000000000000000e+00  -5.5159882540952200e-03 -1.0302134679148407e+00 0.0000000000000000e+00  -4.9137125329359122e-03 -9.5632526071127821e-01 0.0000000000000000e+00  -2.4153344182128514e-02 3.6905881399585169e-03 0.0000000000000000e+00  -1.8388291372453437e-02 3.7340711211205561e-03 0.0000000000000000e+00  -1.0796138978984213e-02 3.8195080509719889e-03 0.0000000000000000e+00  -6.9243567779029116e-04 -7.5853163161648729e-03 0.0000000000000000e+00  1.0858196513018378e-04 -3.0986640244178151e-03 0.0000000000000000e+00  1.8624550275615354e-03 -2.2750497978550996e-03 0.0000000000000000e+00  3.4660818575581553e-03 -2.4136563034769911e-03 0.0000000000000000e+00  3.9046226909666584e-03 -2.6924319815128757e-03 0.0000000000000000e+00  1.6101714252369965e-02 -3.4384748789351798e-03 0.0000000000000000e+00  1.9221387949806899e-02 -9.0454055390968343e-03 0.0000000000000000e+00  2.0964796192700350e-02 -1.3347772368695434e-02 0.0000000000000000e+00  1.0155959548233692e-02 -9.5716053958519609e-01 0.0000000000000000e+00  3.7826507764329048e-03 -1.0310510684651606e+00 0.0000000000000000e+00  5.3853709241271155e-03 -9.5419338016420319e-01 0.0000000000000000e+00  0.0000000000000000e+00 0.0000000000000000e+00 0.0000000000000000e+00  0.0000000000000000e+00 0.0000000000000000e+00 0.0000000000000000e+00  -7.1947006828703569e-04 -9.4507224980054128e-01 0.0000000000000000e+00  -9.5742311131965848e-03 -1.0227924156040626e+00 0.0000000000000000e+00  -9.5599842716564565e-03 -9.5110004606191156e-01 0.0000000000000000e+00  -2.2343619187114330e-02 -2.1359031138684479e-03 0.0000000000000000e+00  -2.5762570540023632e-02 4.1653342863099503e-03 0.0000000000000000e+00  -3.1724006126465226e-02 1.5265425465112436e-02 0.0000000000000000e+00  -1.4502060028879608e-02 -1.5502837996639795e-02 0.0000000000000000e+00  -5.8209663613549394e-03 -1.7735016114212736e-02 0.0000000000000000e+00  1.4436504382990658e-03 -1.7279718814415163e-02 0.0000000000000000e+00  7.8533033230281987e-03 -1.6222240230325251e-02 0.0000000000000000e+00  1.1962281313561939e-02 -1.3024437232788696e-02 0.0000000000000000e+00  1.9389813313535391e-02 -2.6703584743149873e-03 0.0000000000000000e+00  2.4197769371956550e-02 -6.7725439456060472e-03 0.0000000000000000e+00  2.8808521196686237e-02 -8.1400060753107871e-03 0.0000000000000000e+00  1.7360728150756156e-02 -9.5224187264001525e-01 0.0000000000000000e+00  7.6691197096735502e-03 -1.0240675927835132e+00 0.0000000000000000e+00  7.1009241256219319e-03 -9.4730926920641911e-01 0.0000000000000000e+00  0.0000000000000000e+00 0.0000000000000000e+00 0.0000000000000000e+00  0.0000000000000000e+00 0.0000000000000000e+00 0.0000000000000000e+00  -3.0558421423855964e-03 -9.3222855784013825e-01 0.0000000000000000e+00  -1.4878488382063135e-02 -1.0096857545998714e+00 0.0000000000000000e+00  -1.8170850229811505e-02 -9.3957736646154322e-01 0.0000000000000000e+00  -2.3116901715017922e-02 -8.0772161805218491e-03 0.0000000000000000e+00  -2.5583180041224202e-02 -2.6040744643364960e-03 0.0000000000000000e+00  -2.6952691466727872e-02 -1.7473398518759337e-04 0.0000000000000000e+00  -1.9504895461325493e-02 -2.9971499083174879e-02 0.0000000000000000e+00  -9.0253277383332588e-03 -3.4802304588927406e-02 0.0000000000000000e+00  1.1982201588566744e-03 -3.5365721025416859e-02 0.0000000000000000e+00  1.1236779623233304e-02 -3.4146259221421796e-02 0.0000000000000000e+00  2.0482818657562907e-02 -2.7933622215923274e-02 0.0000000000000000e+00  2.4251936781494853e-02 3.9627353526004204e-03 0.0000000000000000e+00  2.6636119780696420e-02 -1.5002563810646433e-03 0.0000000000000000e+00  2.7954163475148317e-02 -8.0875557864865198e-03 0.0000000000000000e+00  2.5454499832751585e-02 -9.4015367559102514e-01 0.0000000000000000e+00  1.3102740185571237e-02 -1.0119320692648928e+00 0.0000000000000000e+00  9.3623722726034544e-03 -9.3556648612784288e-01 0.0000000000000000e+00  0.0000000000000000e+00 0.0000000000000000e+00 0.0000000000000000e+00  0.0000000000000000e+00 0.0000000000000000e+00 0.0000000000000000e+00  -5.4451667907571225e-03 -9.1366046058985817e-01 0.0000000000000000e+00  -2.0238430740427742e-02 -9.9018147322927963e-01 0.0000000000000000e+00  -2.6719030405278833e-02 -9.2099547894152556e-01 0.0000000000000000e+00  -2.9149170265654261e-02 -1.1690010249466315e-02 0.0000000000000000e+00  -3.1354977486584223e-02 -6.8384024351165005e-03 0.0000000000000000e+00  -3.2844425769300807e-02 -1.7690502555152317e-03 0.0000000000000000e+00  -2.7123029999479034e-02 -5.4212424208088091e-02 0.0000000000000000e+00  -1.3169562084520796e-02 -5.8651742227756737e-02 0.0000000000000000e+00  1.0846392473151810e-03 -5.9842196279267408e-02 0.0000000000000000e+00  1.5167776637421269e-02 -5.8984415955614294e-02 0.0000000000000000e+00  2.8714595096649358e-02 -5.1457819498343833e-02 0.0000000000000000e+00  2.9905788405960126e-02 6.7514744315224778e-03 0.0000000000000000e+00  3.1896331405302361e-02 1.5788142853961368e-03 0.0000000000000000e+00  3.3259093742880212e-02 -2.8395031211418723e-03 0.0000000000000000e+00  3.3574118002844121e-02 -9.2137929684187159e-01 0.0000000000000000e+00  1.8652851556098530e-02 -9.9324308831485342e-01 0.0000000000000000e+00  1.1690870527068043e-02 -9.1807422948254347e-01 0.0000000000000000e+00  0.0000000000000000e+00 0.0000000000000000e+00 0.0000000000000000e+00  0.0000000000000000e+00 0.0000000000000000e+00 0.0000000000000000e+00  -7.3441498112775047e-03 -8.9009032852198922e-01 0.0000000000000000e+00  -2.4400478282326280e-02 -9.6502943702624189e-01 0.0000000000000000e+00  -3.3517706661824492e-02 -8.9612105404057307e-01 0.0000000000000000e+00  -3.5203735625938315e-02 -1.2222131338426307e-02 0.0000000000000000e+00  -3.6763393585251429e-02 -8.8286745556182857e-03 0.0000000000000000e+00  -3.6903047868470144e-02 -5.7912431755098555e-03 0.0000000000000000e+00  -3.3303390495939264e-02 -8.5882427764444755e-02 0.0000000000000000e+00  -1.6598932651819106e-02 -9.0311390976491324e-02 0.0000000000000000e+00  7.8644421120300644e-04 -9.1183577707560443e-02 0.0000000000000000e+00  1.8022895500484776e-02 -9.0852612867208069e-02 0.0000000000000000e+00  3.4894132044161238e-02 -8.2700009998687665e-02 0.0000000000000000e+00  3.5955303761975546e-02 7.0953164576141679e-03 0.0000000000000000e+00  3.7513588058922527e-02 3.8313373967529354e-03 0.0000000000000000e+00  3.7674253697910595e-02 8.5731711758848291e-04 0.0000000000000000e+00  4.0226502486235820e-02 -8.9597321902483662e-01 0.0000000000000000e+00  2.3140517339355422e-02 -9.6854889890004270e-01 0.0000000000000000e+00  1.3547152111174313e-02 -8.9522332576657770e-01 0.0000000000000000e+00  0.0000000000000000e+00 0.0000000000000000e+00 0.0000000000000000e+00  0.0000000000000000e+00 0.0000000000000000e+00 0.0000000000000000e+00  -8.3222439649580197e-03 -8.6338583830664828e-01 0.0000000000000000e+00  -2.6402183768618789e-02 -9.3626979209924177e-01 0.0000000000000000e+00  -3.6951017625370487e-02 -8.6714480664570792e-01 0.0000000000000000e+00  -3.8778064850403873e-02 -1.0640264923511829e-02 0.0000000000000000e+00  -3.9730991065819267e-02 -9.7691924816769218e-03 0.0000000000000000e+00  -3.9192242818428057e-02 -9.1782786582853063e-03 0.0000000000000000e+00  -3.6209178587425263e-02 -1.2252451856276811e-01 0.0000000000000000e+00  -1.8430507778571609e-02 -1.2674016777138067e-01 0.0000000000000000e+00  4.5853965092832908e-04 -1.2713814623892775e-01 0.0000000000000000e+00  1.9207339543168504e-02 -1.2736508974309615e-01 0.0000000000000000e+00  3.7896993790380383e-02 -1.1895530929206417e-01 0.0000000000000000e+00  3.9501189841961826e-02 5.4202571446161649e-03 0.0000000000000000e+00  4.0424529063232961e-02 4.6121958292948467e-03 0.0000000000000000e+00  3.9821764076289540e-02 4.0547177402292921e-03 0.0000000000000000e+00  4.3303567644812510e-02 -8.6649302063819944e-01 0.0000000000000000e+00  2.5361316314631271e-02 -9.3975782271163510e-01 0.0000000000000000e+00  1.4419648311965962e-02 -8.6869268056819515e-01 0.0000000000000000e+00  -4.1336658261954452e-10 -1.8528692440497227e-10 0.0000000000000000e+00  0.0000000000000000e+00 0.0000000000000000e+00 0.0000000000000000e+00  -8.1392784119928580e-03 -8.3616132918348351e-01 0.0000000000000000e+00  -2.5732813007732364e-02 -9.0676582215928747e-01 0.0000000000000000e+00  -3.6197006365784441e-02 -8.3709392445849695e-01 0.0000000000000000e+00  -3.8543020032100507e-02 -7.7438203877491160e-03 0.0000000000000000e+00  -3.8933559389094721e-02 -9.6239137270181623e-03 0.0000000000000000e+00  -3.7846632449324381e-02 -1.1715057586473529e-02 0.0000000000000000e+00  -3.5280925537612640e-02 -1.6005454020774645e-01 0.0000000000000000e+00  -1.8269912654594711e-02 -1.6430081002990848e-01 0.0000000000000000e+00  1.3999528038457677e-04 -1.6411346081348269e-01 0.0000000000000000e+00  1.8436412071001610e-02 -1.6489675468853121e-01 0.0000000000000000e+00  3.7014152438715503e-02 -1.5652107271551674e-01 0.0000000000000000e+00  3.9178604863599809e-02 2.4285289440263698e-03 0.0000000000000000e+00  3.9528004960016100e-02 4.3839315884088665e-03 0.0000000000000000e+00  3.8408118821331126e-02 6.5557004201419857e-03 0.0000000000000000e+00  4.2186521570552589e-02 -8.3614026122766827e-01 0.0000000000000000e+00  2.4837831179074191e-02 -9.0989606111477761e-01 0.0000000000000000e+00  1.4087613938900314e-02 -8.4111904499661205e-01 0.0000000000000000e+00  0.0000000000000000e+00 0.0000000000000000e+00 0.0000000000000000e+00  0.0000000000000000e+00 0.0000000000000000e+00 0.0000000000000000e+00  -6.7547348816312559e-03 -8.1129762256823768e-01 0.0000000000000000e+00  -2.2340661311177876e-02 -8.7966968249480226e-01 0.0000000000000000e+00  -3.1163740418208404e-02 -8.0925506574785255e-01 0.0000000000000000e+00  -3.4056829428730229e-02 -4.1459614971021790e-03 0.0000000000000000e+00  -3.3915968973875145e-02 -8.6298656982959736e-03 0.0000000000000000e+00  -3.2508318766028617e-02 -1.3274997149856645e-02 0.0000000000000000e+00  -3.0417407083946781e-02 -1.9442887443201223e-01 0.0000000000000000e+00  -1.6067888131740041e-02 -1.9894236855640018e-01 0.0000000000000000e+00  -1.2852243822123802e-04 -1.9817822614065586e-01 0.0000000000000000e+00  1.5718386481274042e-02 -1.9944589457919334e-01 0.0000000000000000e+00  3.2197839989083668e-02 -1.9133700754857125e-01 0.0000000000000000e+00  3.4593883955163898e-02 -1.2279773141075502e-03 0.0000000000000000e+00  3.4405811340841509e-02 3.3282132287377249e-03 0.0000000000000000e+00  3.2959951496342905e-02 8.0400199918270378e-03 0.0000000000000000e+00  3.6823347182798734e-02 -8.0823535105311339e-01 0.0000000000000000e+00  2.1544409423054786e-02 -8.8220262383638315e-01 0.0000000000000000e+00  1.2545474953714249e-02 -8.1545168404487522e-01 0.0000000000000000e+00  0.0000000000000000e+00 0.0000000000000000e+00 0.0000000000000000e+00  0.0000000000000000e+00 0.0000000000000000e+00 0.0000000000000000e+00  -4.2993715173102656e-03 -7.9150077950096143e-01 0.0000000000000000e+00  -1.6557281087399647e-02 -8.5794611714000169e-01 0.0000000000000000e+00  -2.2355200253804993e-02 -7.8670106014323937e-01 0.0000000000000000e+00  -2.5643939619320225e-02 -4.0277803123955089e-04 0.0000000000000000e+00  -2.5029943677017417e-02 -7.0076142146843412e-03 0.0000000000000000e+00  -2.3492635022561412e-02 -1.3720132880971847e-02 0.0000000000000000e+00  -2.2119121254807358e-02 -2.2188073794654439e-01 0.0000000000000000e+00  -1.2059505800804908e-02 -2.2687731982014134e-01 0.0000000000000000e+00  -3.3031902814501261e-04 -2.2561896182839514e-01 0.0000000000000000e+00  1.1322094423621466e-02 -2.2724569840082370e-01 0.0000000000000000e+00  2.3936822377399115e-02 -2.1958865659738205e-01 0.0000000000000000e+00  2.6095733784539322e-02 -5.0067583696530530e-03 0.0000000000000000e+00  2.5426595767422348e-02 1.6530126218954207e-03 0.0000000000000000e+00  2.3848165129725495e-02 8.4157974081677973e-03 0.0000000000000000e+00  2.7754982375280741e-02 -7.8584986610734564e-01 0.0000000000000000e+00  1.5823521440171875e-02 -8.5971612941781594e-01 0.0000000000000000e+00  9.9526138240558400e-03 -7.9448760662943918e-01 0.0000000000000000e+00  0.0000000000000000e+00 0.0000000000000000e+00 0.0000000000000000e+00  0.0000000000000000e+00 0.0000000000000000e+00 0.0000000000000000e+00  -1.0379479980996485e-03 -7.7894783413010082e-01 0.0000000000000000e+00  -9.0091177357039184e-03 -8.4398948105507432e-01 0.0000000000000000e+00  -1.0736310477330105e-02 -7.7191953426037174e-01 0.0000000000000000e+00  -1.4228216511879990e-02 3.0284054683030271e-03 0.0000000000000000e+00  -1.3217261925278449e-02 -4.9659058932121913e-03 0.0000000000000000e+00  -1.1717622298267512e-02 -1.3014741037734961e-02 0.0000000000000000e+00  -1.1295416871538523e-02 -2.3940794116818276e-01 0.0000000000000000e+00  -6.6954450322308122e-03 -2.4504137960649650e-01 0.0000000000000000e+00  -4.5536024449171754e-04 -2.4342631539425794e-01 0.0000000000000000e+00  5.7169933705016511e-03 -2.4524590650466804e-01 0.0000000000000000e+00  1.3134245193968320e-02 -2.3817883332809811e-01 0.0000000000000000e+00  1.4622779535164498e-02 -8.4539345647281355e-03 0.0000000000000000e+00  1.3551421404897769e-02 -4.2937761320356