<?xml version="1.0"?>
<VTKFile type="UnstructuredGrid"  version="0.1"  >
<UnstructuredGrid>
<Piece  NumberOfPoints="589" NumberOfCells="1080">
<Points>
<DataArray  type="Float64"  NumberOfComponents="3"  format="ascii">-9 0 0  -8 0 0  -7 0 0  -6 0 0  -5 0 0  -4 0 0  -3 0 0  -2 0 0  -1 0 0  0 0 0  1 0 0  2 0 0  3 0 0  4 0 0  5 0 0  6 0 0  7 0 0  8 0 0  9 0 0  -9 2 0  -8.000002393396707 1.999995978648011 0  -7.000005087647288 1.999992462085991 0  -6.000008748857544 1.999989861663459 0  -5.000014863675212 1.999988360065903 0  -4.000008576109593 1.99999121959785 0  -3.00000203215161 1.999993995463282 0  -1.999998826141278 1.999996621928419 0  -0.9999982740542523 1.999998677851453 0  6.503640250248853e-07 1.999999509512587 0  0.9999995533481333 1.99999869785132 0  2.000000030075169 1.999996361217765 0  3.000003201471475 1.999993427735037 0  4.000009534899259 1.999990045050254 0  5.000018859347953 1.999987889865271 0  6.000011743343591 1.999988855718616 0  7.000007102117665 1.999991586316267 0  8.00000341089309 1.999995494755581 0  9 2 0  -9.000000000004983 4 0  -8.000003583364267 3.999989938231695 0  -7.000006307468329 3.999981259683362 0  -6.000007683271458 3.999975328065029 0  -5.000007852870985 3.999973461103191 0  -3.999998479864331 3.999974533729029 0  -2.999992114736544 3.999982388438807 0  -1.999990361937456 3.99999273136926 0  -0.9999926185252047 4.000001013973709 0  2.946193838098238e-06 4.000004169942586 0  0.9999984794243366 4.000001018346839 0  1.999996152109909 3.999993031400208 0  2.999998161616255 3.999982155247042 0  4.00000519296266 3.999970842732034 0  5.000015567509 3.999965763599923 0  6.000013587503931 3.999970652567375 0  7.000010404163506 3.999978461422338 0  8.000005700382541 3.999988602447703 0  9 4 0  -9 6 0  -8.000008210254546 5.999978365422028 0  -7.000012920498898 5.999959070014522 0  -6.000011442494031 5.999944536285684 0  -5.000002967248546 5.999937131900038 0  -3.999984489823144 5.999948541152419 0  -2.99997588708552 5.999973075054509 0  -1.999978713652072 5.999998960010249 0  -0.9999865614808069 6.000013514807313 0  5.27210635735024e-06 6.000016298512065 0  0.9999977886344654 6.000011016940157 0  1.999992121118343 5.999996726327559 0  2.999990309197921 5.999972652431826 0  3.999995432852644 5.999947368022024 0  5.00001244420202 5.999933953582825 0  6.000020245024109 5.999940770361782 0  7.000019787800872 5.999956008441842 0  8.000011976014662 5.999976684610918 0  9 6 0  -9 8 0  -8.000026835827985 7.999957438185385 0  -7.000044285680433 7.999917836089703 0  -6.000043190116875 7.999885229618886 0  -5.000015543870228 7.999866295843368 0  -3.999980219732868 7.999920091967173 0  -2.999985285718857 7.999983735993476 0  -1.999997325885741 8.000015527284196 0  -0.9999979109094512 8.000020134057904 0  1.006443146736431e-05 8.000021617396273 0  1.000015785449144 8.00002475738378 0  2.000012957176944 8.000010032154366 0  2.999996894723485 7.999985005964508 0  3.999991725602432 7.99992487145929 0  5.000028756428151 7.999857308279782 0  6.000059932885376 7.999877206722568 0  7.000058587424561 7.999911806075618 0  8.000034906531761 7.999954212200274 0  9 8 0  -9 10 0  -8.000082994265835 9.999924681077053 0  -7.000149820629583 9.999848633621497 0  -6.000181128363806 9.999771255268277 0  -5.00014988009524 9.999692233349363 0  -4.000094600190816 9.999864045379731 0  -3.00010101183469 10.0000125875356 0  -2.000077290059985 9.999990222172967 0  -1.000028567493195 9.99998308061301 0  8.22705835856989e-06 9.999981334690021 0  1.000045244607273 9.999981154820992 0  2.000095059668781 9.999979007130712 0  3.000138211718747 10.00003460672875 0  4.000132591573004 9.99987919591968 0  5.00020088161712 9.999675062265936 0  6.000229681231871 9.999754860944117 0  7.000186711262003 9.999836388826635 0  8.000102727873873 9.999918220946176 0  9 10 0  -9 12 0  -8.000203773958937 11.99989485690828 0  -7.000397347653455 11.99978478634593 0  -6.000569131213158 11.99966391003575 0  -5.000704698136373 11.99952406043721 0  -4.000676418052816 11.99983409922077 0  -3.00069886227357 12.0001408373606 0  -2.000458783992693 12.00010755988881 0  -1.000195681772833 12.00009141974736 0  7.519853885825586e-05 12.0000917188112 0  1.000346764132699 12.00010940512463 0  2.00061247117052 12.0001487275936 0  3.000859027571638 12.0002200113672 0  4.000829627192649 11.99984697824405 0  5.000851471565515 11.9994707503977 0  6.000686370937977 11.99962564899633 0  7.000478819466673 11.99975978584982 0  8.000245484211353 11.99988246142622 0  9 12 0  -9 14 0  -8.000365252216373 13.99988476348723 0  -7.000731870936891 13.99976419815844 0  -6.001101719281372 13.9996325106381 0  -5.001477990805745 13.9994829998477 0  -4.001481520529826 13.99984081804627 0  -3.001480772956477 14.00020300114665 0  -2.000932568720831 14.00015638746313 0  -1.000393981551164 14.00013403679075 0  0.0001394794200300203 14.00013258832334 0  1.000671908325153 14.00015115644777 0  2.001206823825584 14.00019066931078 0  3.001746583713993 14.00025319056558 0  4.0017500777384 13.99983167784952 0  5.001755548547409 13.99941239591089 0  6.001312560259506 13.99957958437115 0  7.000873883456683 13.99972908852635 0  8.000436723438424 13.99986728345056 0  9 14 0  -9 16 0  -8.000521126348564 15.99989599885415 0  -7.001053247326231 15.99978812772469 0  -6.001608245551465 15.99967244818394 0  -5.002199860300944 15.9995449528957 0  -4.002221127367619 15.9998430423911 0  -3.002198086862414 16.00013920012281 0  -2.001368256577379 16.0001082817575 0  -1.000571925877173 16.00009314203707 0  0.0002079217294270512 16.0000934810926 0  1.000987320673798 16.00010921914602 0  2.001782224031009 16.00014066977177 0  3.002609515766584 16.00018845878146 0  4.002633085286844 15.99982006927573 0  5.002614380073096 15.99945112017275 0  6.001920986727582 15.99960432770956 0  7.001262564025613 15.99974367783942 0  8.000626025233725 15.99987404563212 0  9 16 0  -9 18 0  -8.000632878935187 17.9999227174141 0  -7.001282853476437 17.99984330557796 0  -6.001967884050811 17.99975967216163 0  -5.002707673128979 17.99966981404949 0  -4.002740056323233 17.99984166367903 0  -3.00270628404314 18.00001298200727 0  -2.001670430698403 17.99999716013808 0  -1.000684152360132 17.99999043728786 0  0.0002781754702292568 17.99999288301634 0  1.00124096207578 18.00000453591913 0  2.002228583796029 18.00002541843342 0  3.003266565676209 18.00005548935017 0  4.003301571753602 17.99981095992835 0  5.003269720388059 17.99956676869829 0  6.002388933577539 17.9996845475695 0  7.00156332982584 17.99979422582101 0  8.000773052413154 17.99989847298838 0  9 18 0  -9 20 0  -8.000676115957129 19.99995795072902 0  -7.001371968456074 19.99991537365224 0  -6.002108046240398 19.99987180361609 0  -5.002906347505461 19.99982690237108 0  -4.002943308813073 19.99983920359009 0  -3.002904583650328 19.99985097201253 0  -2.001774861914962 19.99984971727896 0  -1.000700831300987 19.99985113859108 0  0.0003466049390714229 19.99985553517329 0  1.00139553755407 19.99986301184691 0  2.002474079785051 19.99987348696313 0  3.003611404588032 19.9998866751603 0  4.003651490574305 19.99980571737401 0  5.003613134435105 19.9997249430657 0  6.002635529040906 19.999797184402 0  7.001722404260972 19.99986650558656 0  8.00085097269965 19.99993377934781 0  8.999999999970502 19.99999999999801 0  -9 22 0  -8.000640281539935 21.99999529337574 0  -7.001299913078048 21.99999141437307 0  -6.001998860517456 21.99998926276151 0  -5.002758320470098 21.99998988417202 0  -4.00279429512958 21.99983539504732 0  -3.002756559085951 21.99968037848199 0  -2.001657103723106 21.99969159500494 0  -1.000611396401205 21.99969996683184 0  0.0004090640098275192 21.99970589594459 0  1.001431969760586 21.99970952197594 0  2.002485056199026 21.99971072782013 0  3.003596956471125 21.99970913526068 0  4.003636260251912 21.9998032805719 0  5.003597165817864 21.99989747259445 0  6.002623606209654 21.99992149974959 0  7.001714344248919 21.99994697133286 0  8.000846881634635 21.99997329102635 0  9 22 0  -9 24 0  -8.000526913522448 24.0000293269863 0  -7.001070311984193 24.00006054788966 0  -6.001647153989243 24.00009563262888 0  -5.00227532772621 24.00013670498114 0  -4.002305883200613 23.99983051513945 0  -3.00227382370564 23.99952385611443 0  -2.001324921557233 23.99954482729127 0  -1.000421232047775 23.99955854402515 0  0.0004617643467431887 23.99956544793809 0  1.001347985489426 23.99956569122929 0  2.002261402432264 23.99955913863903 0  3.003226695664176 23.99954536582716 0  4.003260469494888 23.9998031965958 0  5.003225456857143 24.00006099968265 0  6.002353928330701 24.00004003081968 0  7.001538749181584 24.00002403928066 0  8.000760312369316 24.00001124026259 0  9 24 0  -9 26 0  -8.000347446800408 26.00005578930173 0  -7.000706631972608 26.00011423123773 0  -6.001089618132606 26.00017805682785 0  -5.001509090266543 26.00025015572683 0  -4.001530856492305 25.99982489549867 0  -3.001508048203906 25.99939923659573 0  -2.000812443934738 25.99942702209286 0  -1.000148545723873 25.99944431902628 0  0.0005015927734052843 25.99945158943624 0  1.001155526152692 25.99944899081446 0  2.001830867145883 25.99943637610181 0  3.002545736197989 25.99941329326226 0  4.002570353104532 25.99980497558192 0  5.002543144882099 26.00019655476263 0  6.001858305101493 26.00013864782265 0  7.001215853825389 26.00008833477311 0  8.000601091275101 26.00004295372782 0  9 26 0  -9 28 0  -8.000120839342351 28.00007164585534 0  -7.000247409041592 28.00014638534222 0  -6.00038560917163 28.00022739241627 0  -5.000541644253503 28.0003180025141 0  -4.000552357295792 27.99981895103054 0  -3.000541199773633 27.99931959072152 0  -2.000173690889166 27.99935111265203 0  -0.9998210691250194 27.99937014087382 0  0.0005262664521116397 27.99937714943707 0  1.000877738507857 27.99937229698331 0  2.001242829381559 27.99935542719931 0  3.00163131978857 27.99932606834047 0  4.001644322104131 27.99980818247943 0  5.001627559977381 28.00029013616778 0  6.001192578472616 28.0002068876373 0  7.000781861624454 28.00013290306743 0  8.000387
[...]
<PointData  Vectors="f_44-0"> 
<DataArray  type="Float64"  Name="f_44-0"  NumberOfComponents="3" format="ascii">0.0000000000000000e+00 0.0000000000000000e+00 0.0000000000000000e+00  5.9324759953680424e-07 -1.2431340331163106e+01 0.0000000000000000e+00  5.4959047156275403e-07 -1.2899588662647927e+01 0.0000000000000000e+00  6.6343415293016677e-07 -1.2307916516827699e+01 0.0000000000000000e+00  0.0000000000000000e+00 0.0000000000000000e+00 0.0000000000000000e+00  0.0000000000000000e+00 0.0000000000000000e+00 0.0000000000000000e+00  0.0000000000000000e+00 0.0000000000000000e+00 0.0000000000000000e+00  0.0000000000000000e+00 0.0000000000000000e+00 0.0000000000000000e+00  0.0000000000000000e+00 0.0000000000000000e+00 0.0000000000000000e+00  0.0000000000000000e+00 0.0000000000000000e+00 0.0000000000000000e+00  0.0000000000000000e+00 0.0000000000000000e+00 0.0000000000000000e+00  0.0000000000000000e+00 0.0000000000000000e+00 0.0000000000000000e+00  0.0000000000000000e+00 0.0000000000000000e+00 0.0000000000000000e+00  0.0000000000000000e+00 0.0000000000000000e+00 0.0000000000000000e+00  0.0000000000000000e+00 0.0000000000000000e+00 0.0000000000000000e+00  6.0391775040361667e-07 -1.2427383110824398e+01 0.0000000000000000e+00  5.5426012582643736e-07 -1.2897589637109393e+01 0.0000000000000000e+00  6.6796131242180764e-07 -1.2306733428767258e+01 0.0000000000000000e+00  0.0000000000000000e+00 0.0000000000000000e+00 0.0000000000000000e+00  0.0000000000000000e+00 0.0000000000000000e+00 0.0000000000000000e+00  -5.2711001264757640e-02 -1.2368225476627996e+01 0.0000000000000000e+00  -1.9783998957618745e-02 -1.2912488901158689e+01 0.0000000000000000e+00  -1.3477181104939914e-02 -1.2358234062131601e+01 0.0000000000000000e+00  1.1272937868727134e-03 2.0944602382476693e-04 0.0000000000000000e+00  9.6902444476651309e-04 -6.0819475346476063e-05 0.0000000000000000e+00  4.8581700419299192e-04 -7.5071466972367711e-06 0.0000000000000000e+00  3.0265277866762516e-04 1.4606242733269795e-04 0.0000000000000000e+00  1.8442399161319861e-04 2.0618936722560936e-04 0.0000000000000000e+00  1.3874248843691092e-04 1.3377954841945660e-04 0.0000000000000000e+00  9.0215956949675374e-05 -4.3907923657461815e-06 0.0000000000000000e+00  1.2401043370016190e-05 -1.4591960264705706e-04 0.0000000000000000e+00  -1.8502199655481659e-04 -3.8359169962246274e-04 0.0000000000000000e+00  -5.3230440448379112e-04 -3.9743182002447368e-04 0.0000000000000000e+00  -1.0695485687276232e-03 -9.3009488379592654e-04 0.0000000000000000e+00  -5.4322002086043528e-02 -1.2368053684315127e+01 0.0000000000000000e+00  -2.0822422221838343e-02 -1.2912980156008718e+01 0.0000000000000000e+00  -1.5176360587995468e-02 -1.2358413350458132e+01 0.0000000000000000e+00  0.0000000000000000e+00 0.0000000000000000e+00 0.0000000000000000e+00  0.0000000000000000e+00 0.0000000000000000e+00 0.0000000000000000e+00  -1.5254741008746433e-02 -1.2362687121636732e+01 0.0000000000000000e+00  -3.5263535491450247e-02 -1.2905461482582513e+01 0.0000000000000000e+00  -2.1682657714161439e-02 -1.2360956246221598e+01 0.0000000000000000e+00  -1.1403026869076739e-04 1.6273943687453700e-04 0.0000000000000000e+00  3.8046700249964162e-05 8.4791835465534992e-04 0.0000000000000000e+00  -6.9542593544482978e-05 1.1693979641618948e-03 0.0000000000000000e+00  -1.5651649930308021e-04 8.5900503249633584e-04 0.0000000000000000e+00  -2.3417311063021081e-04 2.2675703261078640e-04 0.0000000000000000e+00  -1.4147135478845250e-04 -2.2017799128590788e-04 0.0000000000000000e+00  5.5508402710425151e-05 -1.8661699944908994e-04 0.0000000000000000e+00  4.1177176014078274e-04 -1.8458858721806071e-04 0.0000000000000000e+00  4.1309460263268927e-04 -1.2526465592773561e-04 0.0000000000000000e+00  9.1819493070770272e-05 4.7829888725630461e-04 0.0000000000000000e+00  -3.4612794151063660e-04 9.9678156270300374e-04 0.0000000000000000e+00  -1.6290703472529488e-02 -1.2358131105827571e+01 0.0000000000000000e+00  -3.6129988275170631e-02 -1.2899385250033376e+01 0.0000000000000000e+00  -2.3303554296579661e-02 -1.2354260131343088e+01 0.0000000000000000e+00  0.0000000000000000e+00 0.0000000000000000e+00 0.0000000000000000e+00  0.0000000000000000e+00 0.0000000000000000e+00 0.0000000000000000e+00  -7.2429769361682559e-04 -1.2356492118334687e+01 0.0000000000000000e+00  -9.9661112701782493e-03 -1.2885917119610401e+01 0.0000000000000000e+00  -1.3724037444737025e-02 -1.2337852145959426e+01 0.0000000000000000e+00  -7.9063652730415298e-04 2.7245057648288876e-03 0.0000000000000000e+00  -8.7544029625525872e-04 3.2968501808418320e-03 0.0000000000000000e+00  -1.1103343454679721e-03 2.1854904569595492e-03 0.0000000000000000e+00  -1.3287039426062473e-03 -2.8340653562511830e-04 0.0000000000000000e+00  -7.1727368534932421e-04 -1.5025256952988979e-03 0.0000000000000000e+00  2.8396830231534882e-05 -1.0857177241558843e-03 0.0000000000000000e+00  6.4923641502867059e-04 -6.5873788254987721e-04 0.0000000000000000e+00  7.5974019899395300e-04 -1.7490518370367149e-04 0.0000000000000000e+00  1.0412448068628591e-03 6.9848125148041899e-04 0.0000000000000000e+00  1.1720753529289643e-03 5.5883110622662784e-04 0.0000000000000000e+00  8.3117468926486465e-05 -3.4151696641775725e-05 0.0000000000000000e+00  -1.8588073987281738e-03 -1.2352456909792810e+01 0.0000000000000000e+00  -1.5984522306411370e-02 -1.2888045787078747e+01 0.0000000000000000e+00  -2.1441806151018258e-02 -1.2346183588757848e+01 0.0000000000000000e+00  0.0000000000000000e+00 0.0000000000000000e+00 0.0000000000000000e+00  0.0000000000000000e+00 0.0000000000000000e+00 0.0000000000000000e+00  2.4106659517041319e-03 -1.2363915114269624e+01 0.0000000000000000e+00  -1.1079114010230466e-03 -1.2895962839855763e+01 0.0000000000000000e+00  -9.6137579321354961e-03 -1.2355734400120667e+01 0.0000000000000000e+00  -3.5414079877710775e-03 3.6377539257197050e-03 0.0000000000000000e+00  -5.2866072934486131e-03 3.4947325855314848e-03 0.0000000000000000e+00  -1.9173350670116866e-03 -1.3676395196893041e-03 0.0000000000000000e+00  -1.3008555617359814e-03 -4.1232796058918606e-03 0.0000000000000000e+00  4.7680279739870497e-04 -2.7012487392352076e-03 0.0000000000000000e+00  7.9733521024699476e-04 -2.4876885360638982e-03 0.0000000000000000e+00  1.6946876994933949e-03 -4.4030747719252675e-03 0.0000000000000000e+00  1.6407903392963010e-03 -1.0307451545820182e-03 0.0000000000000000e+00  6.9471546591776279e-03 -1.9608193452712377e-03 0.0000000000000000e+00  7.6574415646853853e-03 -3.5936127526023189e-03 0.0000000000000000e+00  3.8608005381553681e-03 -1.1053787299973561e-03 0.0000000000000000e+00  -8.6055036496292584e-04 -1.2355702667051334e+01 0.0000000000000000e+00  -1.8891189894697567e-03 -1.2884388948210658e+01 0.0000000000000000e+00  -1.1190803330600171e-02 -1.2342444026181102e+01 0.0000000000000000e+00  0.0000000000000000e+00 0.0000000000000000e+00 0.0000000000000000e+00  0.0000000000000000e+00 0.0000000000000000e+00 0.0000000000000000e+00  3.5210612694758720e-03 -1.2364076601533339e+01 0.0000000000000000e+00  6.0529282907961163e-03 -1.2889935866026560e+01 0.0000000000000000e+00  6.2420102440222643e-03 -1.2339678381672286e+01 0.0000000000000000e+00  -1.2762095269088190e-02 1.6840825676806365e-02 0.0000000000000000e+00  -1.0577537950585360e-02 8.8726161731852993e-03 0.0000000000000000e+00  -3.9664027840909206e-03 2.0240574033161566e-03 0.0000000000000000e+00  3.3447141404743586e-03 -6.1865743671559413e-03 0.0000000000000000e+00  1.9309799116782526e-03 -2.1241445266512722e-03 0.0000000000000000e+00  1.8627264904527256e-03 -1.3847382244820590e-03 0.0000000000000000e+00  1.7468954300018816e-03 -1.5853828173473961e-03 0.0000000000000000e+00  -4.0093443050594053e-05 -1.7944018012235354e-03 0.0000000000000000e+00  9.7023745132472673e-03 -5.1136212316512542e-03 0.0000000000000000e+00  1.2911959876975791e-02 -3.7731316162449655e-03 0.0000000000000000e+00  1.1348713226485247e-02 1.1092109805585378e-03 0.0000000000000000e+00  -3.0137965641708541e-03 -1.2348477235900679e+01 0.0000000000000000e+00  -2.2855138391759517e-03 -1.2881735637208072e+01 0.0000000000000000e+00  -4.8155455105844975e-03 -1.2343015891834604e+01 0.0000000000000000e+00  0.0000000000000000e+00 0.0000000000000000e+00 0.0000000000000000e+00  0.0000000000000000e+00 0.0000000000000000e+00 0.0000000000000000e+00  7.1293769960456485e-03 -1.2372642326634772e+01 0.0000000000000000e+00  1.6292285270750693e-02 -1.2896402504429345e+01 0.0000000000000000e+00  2.1072264088868815e-02 -1.2346964947826690e+01 0.0000000000000000e+00  1.4927868462173961e-02 1.9811664786930437e-02 0.0000000000000000e+00  1.0753100993763406e-02 1.0335013876450808e-02 0.0000000000000000e+00  7.0168034637212908e-03 4.9922105921404196e-03 0.0000000000000000e+00  1.3523089702254815e-03 1.0847058848698680e-04 0.0000000000000000e+00  3.5677381886719490e-05 2.4099751034293462e-03 0.0000000000000000e+00  -1.2861020740412669e-03 4.9450316475361028e-03 0.0000000000000000e+00  -4.0995562675889318e-03 2.3636144001587013e-03 0.0000000000000000e+00  -1.2887044050276618e-02 -7.2024789586529409e-03 0.0000000000000000e+00  -1.7771430169081542e-02 -1.2759520726586348e-02 0.0000000000000000e+00  -1.2150946198664084e-02 -5.0584998278468236e-04 0.0000000000000000e+00  -8.8279062274128333e-03 1.4321786686037809e-02 0.0000000000000000e+00  -7.9728338958577737e-03 -1.2351713824401482e+01 0.0000000000000000e+00  -8.2561731952161595e-03 -1.2891992729632291e+01 0.0000000000000000e+00  -4.8579539350177506e-03 -1.2353680806207461e+01 0.0000000000000000e+00  0.0000000000000000e+00 0.0000000000000000e+00 0.0000000000000000e+00  0.0000000000000000e+00 0.0000000000000000e+00 0.0000000000000000e+00  1.2043228380748439e-02 -1.2393891736836006e+01 0.0000000000000000e+00  2.8366499581071639e-02 -1.2916384971041657e+01 0.0000000000000000e+00  3.9663586683266729e-02 -1.2368263075495420e+01 0.0000000000000000e+00  5.1282019172169402e-02 1.6881871111645564e-02 0.0000000000000000e+00  4.9358751553803072e-02 4.1675611529573353e-03 0.0000000000000000e+00  4.8301946630907200e-02 -1.1280116818341589e-02 0.0000000000000000e+00  4.1145538167649834e-02 1.7994229262949357e-02 0.0000000000000000e+00  1.9663822680287740e-02 2.4331171723327487e-02 0.0000000000000000e+00  1.1348942681257226e-03 2.7278921098771423e-02 0.0000000000000000e+00  -1.5567239129918227e-02 2.5769170871235154e-02 0.0000000000000000e+00  -3.1255449936524210e-02 2.0824716269139065e-02 0.0000000000000000e+00  -5.1420537697996378e-02 -8.0288901272878507e-03 0.0000000000000000e+00  -4.9430898887900025e-02 4.8460752406554349e-03 0.0000000000000000e+00  -4.8332660406253065e-02 1.6559586276117245e-02 0.0000000000000000e+00  -3.3123020400185693e-02 -1.2378971806032375e+01 0.0000000000000000e+00  -1.4426293297459845e-02 -1.2916094708665765e+01 0.0000000000000000e+00  -7.6466720759443317e-03 -1.2379181139838098e+01 0.0000000000000000e+00  0.0000000000000000e+00 0.0000000000000000e+00 0.0000000000000000e+00  0.0000000000000000e+00 0.0000000000000000e+00 0.0000000000000000e+00  1.6954953314076510e-02 -1.2428818937234690e+01 0.0000000000000000e+00  3.9832332449181426e-02 -1.2950782208745514e+01 0.0000000000000000e+00  5.7089174543085756e-02 -1.2406390050425124e+01 0.0000000000000000e+00  8.1639783108915204e-02 1.1127531316867629e-02 0.0000000000000000e+00  8.0758842514349144e-02 3.2269281795927049e-04 0.0000000000000000e+00  7.8576761414105953e-02 -1.0231456912418092e-02 0.0000000000000000e+00  5.5001656864810650e-02 6.9754930987602118e-02 0.0000000000000000e+00  2.7011997656752183e-02 6.8627273914625031e-02 0.0000000000000000e+00  1.2221465987857321e-03 6.9559883854443755e-02 0.0000000000000000e+00  -2.3925018550097082e-02 6.8258838905295632e-02 0.0000000000000000e+00  -5.2699525078196516e-02 6.5513269084259265e-02 0.0000000000000000e+00  -8.2753366382423518e-02 -2.3071354550276949e-03 0.0000000000000000e+00  -8.1945763097362193e-02 8.1664238871263749e-03 0.0000000000000000e+00  -7.9672988382036000e-02 1.9321798794813147e-02 0.0000000000000000e+00  -5.7372667416542192e-02 -1.2423573652297412e+01 0.0000000000000000e+00  -2.6356467610840314e-02 -1.2955129158930585e+01 0.0000000000000000e+00  -1.0194440911360179e-02 -1.2418019163481267e+01 0.0000000000000000e+00  0.0000000000000000e+00 0.0000000000000000e+00 0.0000000000000000e+00  0.0000000000000000e+00 0.0000000000000000e+00 0.0000000000000000e+00  2.0624125789827238e-02 -1.2474640638920542e+01 0.0000000000000000e+00  4.8108648594536778e-02 -1.2996319874374056e+01 0.0000000000000000e+00  6.9110247758388338e-02 -1.2456631168188627e+01 0.0000000000000000e+00  1.0267780641357660e-01 4.9892799390710242e-03 0.0000000000000000e+00  1.0286994613247996e-01 -1.4679396496748934e-03 0.0000000000000000e+00  1.0130353192643095e-01 -8.2195171020214963e-03 0.0000000000000000e+00  6.8314299850237348e-02 1.2585247172871461e-01 0.0000000000000000e+00  3.2841263971784128e-02 1.2409758611741542e-01 0.0000000000000000e+00  7.4558098416899524e-04 1.2513504000843820e-01 0.0000000000000000e+00  -3.1010683069609263e-02 1.2486316080961912e-01 0.0000000000000000e+00  -6.7627786073505572e-02 1.2522130319353839e-01 0.0000000000000000e+00  -1.0406721241246196e-01 4.2640555082642468e-03 0.0000000000000000e+00  -1.0412463669917844e-01 1.0698423128453934e-02 0.0000000000000000e+00  -1.0237190731892094e-01 1.7361819208069670e-02 0.0000000000000000e+00  -7.5068685478335326e-02 -1.2478772195203280e+01 0.0000000000000000e+00  -3.7810836168428688e-02 -1.3003245517864286e+01 0.0000000000000000e+00  -1.3952493417917941e-02 -1.2465671989636199e+01 0.0000000000000000e+00  0.0000000000000000e+00 0.0000000000000000e+00 0.0000000000000000e+00  0.0000000000000000e+00 0.0000000000000000e+00 0.0000000000000000e+00  2.2311503041096727e-02 -1.2526385793415708e+01 0.0000000000000000e+00  5.1709260392161380e-02 -1.3047770745895443e+01 0.0000000000000000e+00  7.3766884571295849e-02 -1.2513012606316968e+01 0.0000000000000000e+00  1.1188670965373029e-01 -9.2007089865856081e-04 0.0000000000000000e+00  1.1283090759470446e-01 -2.2876282403719462e-03 0.0000000000000000e+00  1.1159709160662092e-01 -3.8879031443587522e-03 0.0000000000000000e+00  7.2963889631122686e-02 1.9514127428169922e-01 0.0000000000000000e+00  3.4980575195773980e-02 1.8922806511462117e-01 0.0000000000000000e+00  8.4832913757603128e-05 1.8922697492221985e-01 0.0000000000000000e+00  -3.4497167302468136e-02 1.9006978041227501e-01 0.0000000000000000e+00  -7.4777719272506607e-02 1.9448072527318830e-01 0.0000000000000000e+00  -1.1332309682664066e-01 1.0547927855555451e-02 0.0000000000000000e+00  -1.1415804309723203e-01 1.1754276311416519e-02 0.0000000000000000e+00  -1.1283606165843779e-01 1.3170283504123267e-02 0.0000000000000000e+00  -8.3366293418987242e-02 -1.2539032283845957e+01 0.0000000000000000e+00  -4.5085156466939426e-02 -1.3056381626479748e+01 0.0000000000000000e+00  -1.7475936317434482e-02 -1.2517642401353658e+01 0.0000000000000000e+00  0.0000000000000000e+00 -3.6304088477732281e-10 0.0000000000000000e+00  0.0000000000000000e+00 0.0000000000000000e+00 0.0000000000000000e+00  2.1728485895526763e-02 -1.2578247428212608e+01 0.0000000000000000e+00  5.0105435168382319e-02 -1.3099318947376352e+01 0.0000000000000000e+00  7.0446725152649617e-02 -1.2569204830253582e+01 0.0000000000000000e+00  1.0842414207321226e-01 -6.0425054947115973e-03 0.0000000000000000e+00  1.0983628394674580e-01 -2.0781834655645994e-03 0.0000000000000000e+00  1.0910429971130503e-01 1.7107778898879441e-03 0.0000000000000000e+00  6.9792783071543255e-02 2.6579123966817564e-01 0.0000000000000000e+00  3.3418784256749594e-02 2.5604719202561593e-01 0.0000000000000000e+00  -4.3552414500944094e-04 2.5506815410134115e-01 0.0000000000000000e+00  -3.4057673486610027e-02 2.5702285693292365e-01 0.0000000000000000e+00  -7.3672323020543856e-02 2.6558356183835297e-01 0.0000000000000000e+00  -1.0981572751704965e-01 1.5913346938133524e-02 0.0000000000000000e+00  -1.1112054061618512e-01 1.1773760408339242e-02 0.0000000000000000e+00  -1.1028482399423513e-01 7.8262335208973115e-03 0.0000000000000000e+00  -8.1191514513220431e-02 -1.2597317495881690e+01 0.0000000000000000e+00  -4.6261314422528954e-02 -1.3108547048807052e+01 0.0000000000000000e+00  -1.9127432447089476e-02 -1.2568836092529985e+01 0.0000000000000000e+00  0.0000000000000000e+00 0.0000000000000000e+00 0.0000000000000000e+00  0.0000000000000000e+00 0.0000000000000000e+00 0.0000000000000000e+00  1.8930432644547034e-02 -1.2624437641038091e+01 0.0000000000000000e+00  4.3503118275405810e-02 -1.3145240055848035e+01 0.0000000000000000e+00  5.9599241403263135e-02 -1.2619015974286944e+01 0.0000000000000000e+00  9.2991183940850430e-02 -9.8636749316330617e-03 0.0000000000000000e+00  9.4644040862948101e-02 -1.0399186072905088e-03 0.0000000000000000e+00  9.4441305480300067e-02 7.6493243559661141e-03 0.0000000000000000e+00  5.9044550519570194e-02 3.3085002993732066e-01 0.0000000000000000e+00  2.8358674360572475e-02 3.1750592389576276e-01 0.0000000000000000e+00  -8.2785682614399129e-04 3.1551586592159098e-01 0.0000000000000000e+00  -2.9810431347805609e-02 3.1838697480328165e-01 0.0000000000000000e+00  -6.4516641934959124e-02 3.3083537642319544e-01 0.0000000000000000e+00  -9.4281803752681109e-02 1.9910233136838307e-02 0.0000000000000000e+00  -9.5819403086396332e-02 1.0923949713463799e-02 0.0000000000000000e+00  -9.5521780124937547e-02 2.0825012589312359e-03 0.0000000000000000e+00  -6.9331153419850231e-02 -1.2647411149351781e+01 0.0000000000000000e+00  -4.1090278267989118e-02 -1.3153891974374101e+01 0.0000000000000000e+00  -1.8126286340601448e-02 -1.2613728508338566e+01 0.0000000000000000e+00  0.0000000000000000e+00 0.0000000000000000e+00 0.0000000000000000e+00  0.0000000000000000e+00 0.0000000000000000e+00 0.0000000000000000e+00  1.4244306149172803e-02 -1.2659877791522399e+01 0.0000000000000000e+00  3.2693889461344286e-02 -1.3180525324434910e+01 0.0000000000000000e+00  4.2539920768791789e-02 -1.2657054343351055e+01 0.0000000000000000e+00  6.7513801636219617e-02 -1.2051611662916356e-02 0.0000000000000000e+00  6.9199795733120864e-02 6.2765994069069822e-04 0.0000000000000000e+00  6.9527450877816810e-02 1.3217169029685692e-02 0.0000000000000000e+00  4.1954987747043024e-02 3.8315287698430917e-01 0.0000000000000000e+00  2.0312903053319006e-02 3.6694969585592818e-01 0.0000000000000000e+00  -1.0925868390428140e-03 3.6405911329719676e-01 0.0000000000000000e+00  -2.2299528464376918e-02 3.6758152869180727e-01 0.0000000000000000e+00  -4.8503728975586788e-02 3.8324771060100110e-01 0.0000000000000000e+00  -6.8686648261246167e-02 2.2214700578260919e-02 0.0000000000000000e+00  -7.0250848278829228e-02 9.4054893724244970e-03 0.0000000000000000e+00  -7.0485415132833865e-02 -3.3016830398480070e-03 0.0000000000000000e+00  -4.9540338116323468e-02 -1.2684079580091520e+01 0.0000000000000000e+00  -3.0411604081794351e-02 -1.3187562175568372e+01 0.0000000000000000e+00  -1.4460514440616856e-02 -1.2647438925453050e+01 0.0000000000000000e+00  0.0000000000000000e+00 0.0000000000000000e+00 0.0000000000000000e+00  0.0000000000000000e+00 0.0000000000000000e+00 0.0000000000000000e+00  8.1998990632516696e-03 -1.2680744681096076e+01 0.0000000000000000e+00  1.8900328831177544e-02 -1.3201399712135876e+01 0.0000000000000000e+00  2.1211500332406201e-02 -1.2679278799175211e+01 0.0000000000000000e+00  3.4839068520483636e-02 -1.2430943310145917e-02 0.0000000000000000e+00  3.6380232496938461e-02 2.7194458205297900e-03 0.0000000000000000e+00  3.7199694710930473e-02 1.7824646871441661e-02 0.0000000000000000e+00  2.0371153953615804e-02 4.1706387886469920e-01 0.0000000000000000e+00  1.0135918528460765e-02 3.9906521912876253e-01 0.0000000000000000e+00  -1.2396120653594064e-03 3.9549865419745567e-01 0.0000000000000000e+00  -1.2401113479823433e-02 3.9935031009078586e-01 0.0000000000000000e+00  -2.7461216041115448e-02 4.1722794246552236e-01 0.0000000000000000e+00  -3.5907810987312112e-02 2.2656955362692639e-02 0.0000000000000000e+00  -3.7324292747843331e-02 7.4264579884397146e-03 0.0000000000000000e+00  -3.8054210540551726e-02 -7.