<?xml version="1.0"?>
<VTKFile type="UnstructuredGrid"  version="0.1"  >
<UnstructuredGrid>
<Piece  NumberOfPoints="589" NumberOfCells="1080">
<Points>
<DataArray  type="Float64"  NumberOfComponents="3"  format="ascii">-9 0 0  -8 0 0  -7 0 0  -6 0 0  -5 0 0  -4 0 0  -3 0 0  -2 0 0  -1 0 0  0 0 0  1 0 0  2 0 0  3 0 0  4 0 0  5 0 0  6 0 0  7 0 0  8 0 0  9 0 0  -9 2 0  -8.000002076156067 1.99999645859507 0  -7.000004424181426 1.99999336130611 0  -6.000007638946592 1.999991070005913 0  -5.000013041660089 1.999989744979722 0  -4.000007507592646 1.999992259018436 0  -3.000001734670445 1.999994698799233 0  -1.999998900373912 1.999997006107902 0  -0.9999984009492131 1.999998809021123 0  6.707466549321181e-07 1.999999528292996 0  0.9999997368782849 1.999998790277609 0  2.000000214354278 1.999996693970896 0  3.000003105648744 1.99999405277675 0  4.000008844451475 1.999990975619215 0  5.000017308252946 1.999988923340581 0  6.000010814364615 1.999989861162903 0  7.000006550840857 1.999992367837154 0  8.000003147462495 1.999995919423641 0  9 2 0  -9.000000000004983 4 0  -8.000003064825261 3.999991140800662 0  -7.000005381414071 3.999983498710969 0  -6.00000652608829 3.999978274945315 0  -5.000006628535244 3.999976632823811 0  -3.999998359507023 3.999977537809362 0  -2.999992729366669 3.999984432974305 0  -1.999991156973594 3.99999352709095 0  -0.9999931128723608 4.000000802922806 0  3.013816494355767e-06 4.000003549730265 0  0.9999991215354648 4.000000706092465 0  1.999997137997047 3.999993558799879 0  2.999999017355079 3.999983816749813 0  4.000005370104422 3.999973636019586 0  5.000014691488584 3.999968905103568 0  6.000012707209003 3.999973447007899 0  7.000009661042208 3.999980556154379 0  8.000005271195624 3.999989723016629 0  9 4 0  -9 6 0  -8.000007046346903 5.999980954947644 0  -7.000011026311777 5.999963963174308 0  -6.000009582134533 5.999951153656438 0  -5.000001998732968 5.999944613743185 0  -3.999985688668803 5.999954591155581 0  -2.999978061641696 5.99997614275971 0  -1.999980475192749 5.999998903436189 0  -0.9999873267235215 6.000011725200496 0  5.510525942005034e-06 6.000014159943633 0  0.99999892815182 6.000009430364059 0  1.999993950938713 5.999996672164277 0  2.999992409766903 5.999975189619652 0  3.999997041684491 5.999952585528046 0  5.000012225950726 5.99994048130852 0  6.000018847619605 5.999946764281326 0  7.000018145824472 5.999960514087838 0  8.000010920110043 5.999979086592801 0  9 6 0  -9 8 0  -8.000023292359007 7.99996255772614 0  -7.000038367121092 7.999927700538395 0  -6.00003719463349 7.999898955898436 0  -5.00001273140853 7.999882163821123 0  -3.999981627120572 7.999929352189085 0  -2.999985875116687 7.999985236872684 0  -1.999996294509529 8.000013265398163 0  -0.9999967224548019 8.000017468006595 0  1.03208416604624e-05 8.000018836801177 0  1.000015343983832 8.000021593555047 0  2.000012809905335 8.000008414638081 0  2.999998586774948 7.999986017638548 0  3.999994056404648 7.999932451242803 0  5.000026984234341 7.999872308644032 0  6.000054280438038 7.999890217213784 0  7.000052724482876 7.999921183596209 0  8.000031344983894 7.99995908840652 0  9 8 0  -9 10 0  -8.000072400193959 9.999933827163114 0  -7.000130687204542 9.999866998670601 0  -6.000157960593892 9.999798965858737 0  -5.000130591670328 9.999729424664803 0  -4.000082032433584 9.999879821135004 0  -3.000087275404119 10.00000996448256 0  -2.000066229646575 9.999990849645819 0  -1.000023393504359 9.99998475363609 0  9.086028729795252e-06 9.999983263639997 0  1.000041831850131 9.999983057353452 0  2.000085959983547 9.999980997861103 0  3.000124110375517 10.00002998544523 0  4.000119141678974 9.999891790346027 0  5.000179877308743 9.999710398470894 0  6.000205100363291 9.999781455984175 0  7.000166583404141 9.999854109115493 0  8.000091622446508 9.999927069362464 0  9 10 0  -9 12 0  -8.000177921799825 11.99990773379486 0  -7.000346997958584 11.99981113854291 0  -6.000497170629476 11.9997050517244 0  -5.000615912512197 11.99958230446058 0  -4.000591093014301 11.99985317504258 0  -3.000610368280862 12.0001211269823 0  -2.00039769753149 12.00009259808021 0  -1.00016518128434 12.00007906038919 0  7.389391845721476e-05 12.00007992237476 0  1.000313310214483 12.00009605478964 0  2.000547256580655 12.00013124257305 0  3.000763878472177 12.00019464668373 0  4.000737776277639 11.99986301534464 0  5.000757455543591 11.99952852768594 0  6.000610771553574 11.99966635265547 0  7.000426163183063 11.9997858310752 0  8.000218511637131 11.99989518430412 0  9 12 0  -9 14 0  -8.000318746854022 13.99989897272532 0  -7.000638795841379 13.9997932725494 0  -6.000961886614387 13.9996778200352 0  -5.001290932622982 13.99954674194858 0  -4.001293995088798 13.99985862606768 0  -3.001292910893508 14.00017429195007 0  -2.000808698235063 14.00013441202729 0  -1.000333259953171 14.00011579547731 0  0.0001373796104353844 14.00011552643533 0  1.000606820112578 14.00013286637787 0  2.001078118801555 14.00016867477767 0  3.001553270476815 14.00022481274111 0  4.001556262510962 13.99984927183965 0  5.001561470743447 13.99947567203117 0  6.001167898702528 13.9996247154487 0  7.000777772854459 13.99975810208138 0  8.000388751138839 13.99988147616379 0  9 14 0  -9 16 0  -8.000454256995278 15.99990891365355 0  -7.000918250549471 15.99981443823089 0  -6.0014024970361 15.99971312444386 0  -5.001919145302121 15.99960146381204 0  -4.001937764833603 15.99986016732366 0  -3.001917188979119 16.00011714335481 0  -2.001184889296635 16.00009126488647 0  -1.000482257953905 16.00007921619556 0  0.000205690356246154 16.00008076470301 0  1.000893068368954 16.00009587521128 0  2.001593905463975 16.00012486150081 0  3.002323038330544 16.00016831490275 0  4.002343806143044 15.99983880286908 0  5.002327569407614 15.99950875877338 0  6.001710829747846 15.99964576197489 0  7.001124713969907 15.99977046307995 0  8.000557755765236 15.99988719039966 0  9 16 0  -9 18 0  -8.000550710761839 17.9999324135458 0  -7.001116492352347 17.99986296742949 0  -6.001713175321692 17.99978983429214 0  -5.002358121759928 17.99971126558237 0  -4.002386484531147 17.9998585760795 0  -3.002356548555845 18.00000538489414 0  -2.001442782962112 17.9999928762009 0  -1.000572689094628 17.99998833029365 0  0.0002762982493650623 17.99999183733641 0  1.001125676634998 18.00000346286972 0  2.001996914361929 18.00002325987926 0  3.002912491270766 18.00005122749297 0  4.002943422135325 17.99983054942892 0  5.002915471152531 17.99961013604763 0  6.002130789608659 17.99971605456699 0  7.001394722252063 17.9998147428287 0  8.000689774341787 17.99990858483615 0  9 18 0  -9 20 0  -8.000586778895084 19.99996335034601 0  -7.001190922991524 19.99992624774323 0  -6.001830458914091 19.9998882941417 0  -5.00252474071327 19.99984920294117 0  -4.002557100280304 19.99985605772025 0  -3.002522882214672 19.9998624112872 0  -2.001526423578595 19.99986269482316 0  -1.000578890811872 19.99986529407403 0  0.0003453529372902117 19.99987049793452 0  1.001271064246313 19.99987842564256 0  2.002223023874562 19.99988903380817 0  3.003226950188348 19.9999021013818 0  4.003262443419949 19.99982572796353 0  5.003228633999353 19.99974948510303 0  6.002355798953656 19.99981527999158 0  7.001539944285365 19.99987841357444 0  8.000760932645946 19.99993968508965 0  8.999999999969601 19.99999999999719 0  -9 22 0  -8.000553289689108 21.99999609754839 0  -7.001123578570371 21.99999293281589 0  -6.001728408275422 21.99999130682876 0  -5.002386403219695 21.99999214863281 0  -4.002417864276142 21.99985238933608 0  -3.002384579095006 21.99971213633286 0  -2.001414809412228 21.99972326981605 0  -1.000492142107467 21.99973186131894 0  0.0004085510780278876 21.99973828592581 0  1.001311692107492 21.99974268871727 0  2.002241747666185 21.99974498979841 0  3.00322398238124 21.99974488055344 0  4.003258865650878 21.99982341507137 0  5.00322429600307 21.99990196269477 0  6.00235241372597 21.9999251490183 0  7.001537504777412 21.99994952963739 0  8.000759634015013 21.99997460605634 0  9 22 0  -9 24 0  -8.000451700191537 24.00002589512857 0  -7.000917852336825 24.00005346498908 0  -6.001413331892709 24.0000844509297 0  -5.001953829752444 24.00012072975673 0  -4.001980490238622 23.99984782680396 0  -3.001952253705442 23.99957448322381 0  -2.001115230200201 23.99959399350453 0  -1.000317697825377 23.99960707887469 0  0.0004619767313946526 23.99961414466407 0  1.001244903450549 23.9996153418506 0  2.002052246944592 23.99961056888386 0  3.002905805606036 23.99959947028102 0  4.002935881124375 23.99982322810042 0  5.002904821897723 24.00004693574614 0  6.002120685573991 24.00003023542058 0  7.00138664340729 24.00001785803558 0  8.0006852652735 24.00000825249645 0  9 24 0  -9 26 0  -8.000292159579399 26.0000489973284 0  -7.000594575945547 26.00010033633535 0  -6.00091779089106 26.00015642772035 0  -5.001272894538337 26.00021982184425 0  -4.001291788438185 25.99984267019913 0  -3.001271742092059 25.9994651403052 0  -2.000658121430817 25.99949037358722 0  -1.000072018364407 25.99950633262839 0  0.0005024155354943163 25.99951343622107 0  1.001080690246109 25.9995118339914 0  2.001678376020243 25.99950140826062 0  3.002311499826049 25.99948177268201 0  4.002333548811928 25.99982474648304 0  5.002309306038419 26.00016760400428 0  6.001688145900117 26.00011802583105 0  7.001104863265216 26.00007509681261 0  8.000546323107697 26.00003648589254 0  9 26 0  -9 28 0  -8.000091445577137 28.00006273667637 0  -7.000187840688564 28.0001282027058 0  -6.000294282633487 28.00019919827453 0  -5.00041613690312 28.00027866587045 0  -4.000425274992199 27.99983728577746 0  -3.000415530753891 27.99939560527801 0  -2.000091373620227 27.99942380500396 0  -0.9997798581082127 27.99944096367392 0  0.0005275091269459386 27.9994475051714 0  1.000839071477757 27.99944357509903 0  2.001163233658597 27.99942904130448 0  3.001508673532309 27.99940349347678 0  4.001520500288647 27.99982758924905 0  5.001505427277815 28.00025151680504 0  6.001103661707822 28.0001792177761 0  7.000723843099093 28.00011506343713 0  8.
[...]
<PointData  Vectors="f_44-0"> 
<DataArray  type="Float64"  Name="f_44-0"  NumberOfComponents="3" format="ascii">0.0000000000000000e+00 0.0000000000000000e+00 0.0000000000000000e+00  5.7879880369253358e-07 -1.2456930591926968e+01 0.0000000000000000e+00  5.4269979665403883e-07 -1.2946149545609648e+01 0.0000000000000000e+00  6.4904800068179620e-07 -1.2349702360341510e+01 0.0000000000000000e+00  0.0000000000000000e+00 0.0000000000000000e+00 0.0000000000000000e+00  0.0000000000000000e+00 0.0000000000000000e+00 0.0000000000000000e+00  0.0000000000000000e+00 0.0000000000000000e+00 0.0000000000000000e+00  0.0000000000000000e+00 0.0000000000000000e+00 0.0000000000000000e+00  0.0000000000000000e+00 0.0000000000000000e+00 0.0000000000000000e+00  0.0000000000000000e+00 0.0000000000000000e+00 0.0000000000000000e+00  0.0000000000000000e+00 0.0000000000000000e+00 0.0000000000000000e+00  0.0000000000000000e+00 0.0000000000000000e+00 0.0000000000000000e+00  0.0000000000000000e+00 0.0000000000000000e+00 0.0000000000000000e+00  0.0000000000000000e+00 0.0000000000000000e+00 0.0000000000000000e+00  0.0000000000000000e+00 0.0000000000000000e+00 0.0000000000000000e+00  5.8907354449356892e-07 -1.2451840415082671e+01 0.0000000000000000e+00  5.4698732237206545e-07 -1.2943087245957221e+01 0.0000000000000000e+00  6.5311616088929556e-07 -1.2347514577865335e+01 0.0000000000000000e+00  0.0000000000000000e+00 0.0000000000000000e+00 0.0000000000000000e+00  0.0000000000000000e+00 0.0000000000000000e+00 0.0000000000000000e+00  -5.1297964960978451e-02 -1.2404110143394570e+01 0.0000000000000000e+00  -2.0070950789087612e-02 -1.2957929826549799e+01 0.0000000000000000e+00  -1.5199142951716293e-02 -1.2394418048674193e+01 0.0000000000000000e+00  1.0629813987727767e-03 2.3136420359149654e-04 0.0000000000000000e+00  8.9726345334784714e-04 -1.5357738636924461e-05 0.0000000000000000e+00  4.4719944278851046e-04 1.8331168818584438e-05 0.0000000000000000e+00  2.7367105124984466e-04 1.4065146681006645e-04 0.0000000000000000e+00  1.6825985837197281e-04 1.8360878239807941e-04 0.0000000000000000e+00  1.3314343579075299e-04 1.1527809735374669e-04 0.0000000000000000e+00  9.5442540709488914e-05 -4.8737946866958607e-06 0.0000000000000000e+00  2.5466117374891514e-05 -1.2302562323114410e-04 0.0000000000000000e+00  -1.6040987395646823e-04 -3.2519020213109484e-04 0.0000000000000000e+00  -4.9078165794054127e-04 -3.3082889831134341e-04 0.0000000000000000e+00  -9.9893923479080996e-04 -8.1894726827885604e-04 0.0000000000000000e+00  -5.2886824977420331e-02 -1.2402950130521960e+01 0.0000000000000000e+00  -2.1138404222762384e-02 -1.2957485633355168e+01 0.0000000000000000e+00  -1.6930953116026319e-02 -1.2393616443360768e+01 0.0000000000000000e+00  0.0000000000000000e+00 0.0000000000000000e+00 0.0000000000000000e+00  0.0000000000000000e+00 0.0000000000000000e+00 0.0000000000000000e+00  -1.5578843697666231e-02 -1.2399052194214528e+01 0.0000000000000000e+00  -3.5395739716825421e-02 -1.2952657559693460e+01 0.0000000000000000e+00  -2.2832382315919556e-02 -1.2396891902131543e+01 0.0000000000000000e+00  -4.6133582627550548e-05 2.5897855849161595e-04 0.0000000000000000e+00  4.5590233230007975e-05 8.4820917905122431e-04 0.0000000000000000e+00  -7.6446781350734432e-05 1.0933934915590452e-03 0.0000000000000000e+00  -1.5947290938028556e-04 7.7789417361556474e-04 0.0000000000000000e+00  -2.1724852696072293e-04 1.9158962778834953e-04 0.0000000000000000e+00  -1.1783226044279855e-04 -2.1310295203903320e-04 0.0000000000000000e+00  7.2333298896818266e-05 -1.7293556932685718e-04 0.0000000000000000e+00  3.9417230153278461e-04 -1.4311813114409357e-04 0.0000000000000000e+00  3.8818521797899031e-04 -5.2635897639402363e-05 0.0000000000000000e+00  8.0459313482841624e-05 5.1844630372304323e-04 0.0000000000000000e+00  -3.3861496378461168e-04 9.9911708051608305e-04 0.0000000000000000e+00  -1.6583864366036268e-02 -1.2393346315021718e+01 0.0000000000000000e+00  -3.6229052117513989e-02 -1.2945475672131705e+01 0.0000000000000000e+00  -2.4417737595674140e-02 -1.2389057863551011e+01 0.0000000000000000e+00  0.0000000000000000e+00 0.0000000000000000e+00 0.0000000000000000e+00  0.0000000000000000e+00 0.0000000000000000e+00 0.0000000000000000e+00  -1.1941728557959953e-03 -1.2392490608313262e+01 0.0000000000000000e+00  -1.0311769277145532e-02 -1.2933289507984222e+01 0.0000000000000000e+00  -1.4638845521668459e-02 -1.2373801448259945e+01 0.0000000000000000e+00  -6.4316300232680008e-04 2.6397755043082523e-03 0.0000000000000000e+00  -8.0010488219417074e-04 3.0849321324095597e-03 0.0000000000000000e+00  -1.0405702683074860e-03 2.0113485735886896e-03 0.0000000000000000e+00  -1.2140907902549194e-03 -2.4437448905435013e-04 0.0000000000000000e+00  -6.4656497959623483e-04 -1.3675520701082308e-03 0.0000000000000000e+00  3.6740148513958412e-05 -1.0155879730456153e-03 0.0000000000000000e+00  6.0925035586352786e-04 -6.2459277943772008e-04 0.0000000000000000e+00  7.2865582103117028e-04 -1.4982431067011185e-04 0.0000000000000000e+00  9.8382463120477346e-04 7.0476189481962046e-04 0.0000000000000000e+00  1.0792346411521818e-03 6.7566413655356628e-04 0.0000000000000000e+00  5.8149160997057498e-05 1.9860147862585739e-04 0.0000000000000000e+00  -2.4585069930155366e-03 -1.2387409441731615e+01 0.0000000000000000e+00  -1.6431987820188457e-02 -1.2934399289675998e+01 0.0000000000000000e+00  -2.2425217818889360e-02 -1.2381176943339531e+01 0.0000000000000000e+00  0.0000000000000000e+00 0.0000000000000000e+00 0.0000000000000000e+00  0.0000000000000000e+00 0.0000000000000000e+00 0.0000000000000000e+00  1.9640874594600796e-03 -1.2399881305561864e+01 0.0000000000000000e+00  -1.4570852228825008e-03 -1.2943033301175218e+01 0.0000000000000000e+00  -1.0512248776816464e-02 -1.2391116400170192e+01 0.0000000000000000e+00  -2.9919852170243039e-03 3.7574784483837467e-03 0.0000000000000000e+00  -4.6463134137237575e-03 3.3768405876888874e-03 0.0000000000000000e+00  -1.7017174314993147e-03 -1.1271952972853249e-03 0.0000000000000000e+00  -1.0971543818184091e-03 -3.6541909423430407e-03 0.0000000000000000e+00  4.5131768517175664e-04 -2.4492157317417521e-03 0.0000000000000000e+00  7.0135905887617925e-04 -2.2730419938223204e-03 0.0000000000000000e+00  1.4678849388265402e-03 -3.9722118811653688e-03 0.0000000000000000e+00  1.4283664089685755e-03 -9.5509283814323987e-04 0.0000000000000000e+00  6.1511960624123976e-03 -1.6826658611464693e-03 0.0000000000000000e+00  6.7981339678548115e-03 -2.8946413043125941e-03 0.0000000000000000e+00  3.3209553027578097e-03 -4.5564189945987205e-04 0.0000000000000000e+00  -1.2918938546570241e-03 -1.2390712273322398e+01 0.0000000000000000e+00  -2.2284349889488495e-03 -1.2930742768592861e+01 0.0000000000000000e+00  -1.2012980582876540e-02 -1.2377527645431732e+01 0.0000000000000000e+00  0.0000000000000000e+00 0.0000000000000000e+00 0.0000000000000000e+00  0.0000000000000000e+00 0.0000000000000000e+00 0.0000000000000000e+00  3.1179967775495339e-03 -1.2400176004159757e+01 0.0000000000000000e+00  5.9902640869948414e-03 -1.2937259286366970e+01 0.0000000000000000e+00  5.9785673525771226e-03 -1.2375758936714787e+01 0.0000000000000000e+00  -1.0288459627121537e-02 1.5963930826934761e-02 0.0000000000000000e+00  -8.6672675474625312e-03 8.2718389152090198e-03 0.0000000000000000e+00  -2.9345731858509364e-03 1.6524968776505940e-03 0.0000000000000000e+00  3.2747595404775615e-03 -5.3316149755603661e-03 0.0000000000000000e+00  1.8507193810552807e-03 -1.7847107514839507e-03 0.0000000000000000e+00  1.6421490107391000e-03 -1.1405794994635765e-03 0.0000000000000000e+00  1.4018418129176482e-03 -1.3253192053626591e-03 0.0000000000000000e+00  -3.5818134604230284e-04 -1.5058537853005955e-03 0.0000000000000000e+00  8.0679222864749826e-03 -4.6462089085902089e-03 0.0000000000000000e+00  1.0914884701107712e-02 -2.8927788335869381e-03 0.0000000000000000e+00  9.2641082276546573e-03 2.1725873385057262e-03 0.0000000000000000e+00  -3.8673043723141598e-03 -1.2383779317970053e+01 0.0000000000000000e+00  -2.5835693422863173e-03 -1.2928219596350891e+01 0.0000000000000000e+00  -5.3734080587982316e-03 -1.2378190461273823e+01 0.0000000000000000e+00  0.0000000000000000e+00 0.0000000000000000e+00 0.0000000000000000e+00  0.0000000000000000e+00 0.0000000000000000e+00 0.0000000000000000e+00  6.7060699112656786e-03 -1.2408907899410508e+01 0.0000000000000000e+00  1.6287486150642634e-02 -1.2943886892991143e+01 0.0000000000000000e+00  2.1024175257773649e-02 -1.2383137607093696e+01 0.0000000000000000e+00  1.6300751538134092e-02 1.9295861335719366e-02 0.0000000000000000e+00  1.2551446687429147e-02 9.6393933116631844e-03 0.0000000000000000e+00  9.4391499056015928e-03 3.5755316425428170e-03 0.0000000000000000e+00  2.1745462701500810e-03 1.3241867541671905e-03 0.0000000000000000e+00  2.7047812904150003e-04 3.5579205657553527e-03 0.0000000000000000e+00  -1.4391604086739411e-03 6.0237765428753400e-03 0.0000000000000000e+00  -4.5114126777238851e-03 3.4398264077796295e-03 0.0000000000000000e+00  -1.3310164778219905e-02 -6.0155564149059456e-03 0.0000000000000000e+00  -1.8753787314063419e-02 -1.2087738945588263e-02 0.0000000000000000e+00  -1.3716155651871932e-02 8.3875544686233352e-05 0.0000000000000000e+00  -1.0880214144190350e-02 1.4520990089600590e-02 0.0000000000000000e+00  -9.1405664245608163e-03 -1.2386952147225649e+01 0.0000000000000000e+00  -8.5140750857187978e-03 -1.2938522611986567e+01 0.0000000000000000e+00  -5.2311918487003093e-03 -1.2388941076470125e+01 0.0000000000000000e+00  0.0000000000000000e+00 0.0000000000000000e+00 0.0000000000000000e+00  0.0000000000000000e+00 0.0000000000000000e+00 0.0000000000000000e+00  1.1608348206808509e-02 -1.2430384396667312e+01 0.0000000000000000e+00  2.8401903815083937e-02 -1.2964070963355791e+01 0.0000000000000000e+00  3.9752742559321985e-02 -1.2404738406431672e+01 0.0000000000000000e+00  5.1413563365564123e-02 1.6944109943392738e-02 0.0000000000000000e+00  4.9761043436514468e-02 4.2439998284720167e-03 0.0000000000000000e+00  4.8848699480228935e-02 -1.0844202139931213e-02 0.0000000000000000e+00  4.1594449531462692e-02 1.9824260611014544e-02 0.0000000000000000e+00  1.9827673948786428e-02 2.6067539052628940e-02 0.0000000000000000e+00  1.0248880367878784e-03 2.8983154853107231e-02 0.0000000000000000e+00  -1.5941556867571656e-02 2.7464950346610933e-02 0.0000000000000000e+00  -3.1813131795379319e-02 2.2583557559454695e-02 0.0000000000000000e+00  -5.1642812137365039e-02 -8.0484268524462724e-03 0.0000000000000000e+00  -4.9918252481100649e-02 4.8253004109588410e-03 0.0000000000000000e+00  -4.8966069858878455e-02 1.6667317133599705e-02 0.0000000000000000e+00  -3.4075277424572420e-02 -1.2414360321856638e+01 0.0000000000000000e+00  -1.4677730033699196e-02 -1.2962720733385499e+01 0.0000000000000000e+00  -7.9268946975578902e-03 -1.2414635813859551e+01 0.0000000000000000e+00  0.0000000000000000e+00 0.0000000000000000e+00 0.0000000000000000e+00  0.0000000000000000e+00 0.0000000000000000e+00 0.0000000000000000e+00  1.6537418143083824e-02 -1.2465663125246490e+01 0.0000000000000000e+00  3.9943988887839156e-02 -1.2998777534565699e+01 0.0000000000000000e+00  5.7302079846425095e-02 -1.2443272704902151e+01 0.0000000000000000e+00  8.1141205848343487e-02 1.1685813197364756e-02 0.0000000000000000e+00  8.0474399216015680e-02 8.8813282908025771e-04 0.0000000000000000e+00  7.8491781962994819e-02 -9.6855805220263467e-03 0.0000000000000000e+00  5.5506587945410635e-02 7.2144136959977054e-02 0.0000000000000000e+00  2.7211972174180664e-02 7.0960871772029838e-02 0.0000000000000000e+00  1.0969039008479607e-03 7.1890346528139137e-02 0.0000000000000000e+00  -2.4367941263975283e-02 7.0582760043727225e-02 0.0000000000000000e+00  -5.3359365199433781e-02 6.7959440872241303e-02 0.0000000000000000e+00  -8.2345487102294238e-02 -2.7442270418626498e-03 0.0000000000000000e+00  -8.1730069389940721e-02 7.7821712159468204e-03 0.0000000000000000e+00  -7.9647326671121621e-02 1.8906781016974725e-02 0.0000000000000000e+00  -5.8149628831055976e-02 -1.2459282922123325e+01 0.0000000000000000e+00  -2.6560645639488824e-02 -1.3002044061784895e+01 0.0000000000000000e+00  -1.0394768144864761e-02 -1.2453834413783156e+01 0.0000000000000000e+00  0.0000000000000000e+00 0.0000000000000000e+00 0.0000000000000000e+00  0.0000000000000000e+00 0.0000000000000000e+00 0.0000000000000000e+00  2.0248911139219092e-02 -1.2511996485540303e+01 0.0000000000000000e+00  4.8329197035670096e-02 -1.3044769773025010e+01 0.0000000000000000e+00  6.9467020230785451e-02 -1.2494083205255226e+01 0.0000000000000000e+00  1.0186348137999608e-01 5.8137844443714717e-03 0.0000000000000000e+00  1.0217914272179726e-01 -6.6695571496876366e-04 0.0000000000000000e+00  1.0068180923179534e-01 -7.4022917405649489e-03 0.0000000000000000e+00  6.8860855312875890e-02 1.2907460200483872e-01 0.0000000000000000e+00  3.3092709272904912e-02 1.2713966056487758e-01 0.0000000000000000e+00  6.2245252298965246e-04 1.2817862264492574e-01 0.0000000000000000e+00  -3.1498196712808332e-02 1.2791717191267682e-01 0.0000000000000000e+00  -6.8356634112483453e-02 1.2851865606694371e-01 0.0000000000000000e+00  -1.0339816891088036e-01 3.5748770029132948e-03 0.0000000000000000e+00  -1.0358092171093188e-01 1.0045831852349288e-02 0.0000000000000000e+00  -1.0190284275708000e-01 1.6714289701150506e-02 0.0000000000000000e+00  -7.5846685744785355e-02 -1.2515056172486213e+01 0.0000000000000000e+00  -3.8096485060438993e-02 -1.3050676559658646e+01 0.0000000000000000e+00  -1.4154584258217357e-02 -1.2502054354955257e+01 0.0000000000000000e+00  0.0000000000000000e+00 0.0000000000000000e+00 0.0000000000000000e+00  0.0000000000000000e+00 0.0000000000000000e+00 0.0000000000000000e+00  2.1989818726399043e-02 -1.2564401665864894e+01 0.0000000000000000e+00  5.2040854796940275e-02 -1.3096809453545310e+01 0.0000000000000000e+00  7.4246349553432081e-02 -1.2551174225187143e+01 0.0000000000000000e+00  1.1097215099257578e-01 -3.1797440942298003e-06 0.0000000000000000e+00  1.1196258524521471e-01 -1.3702281939133496e-03 0.0000000000000000e+00  1.1073191601922308e-01 -2.9384333473967640e-03 0.0000000000000000e+00  7.3522185972351342e-02 1.9932139593543644e-01 0.0000000000000000e+00  3.5253545179073739e-02 1.9309078448647540e-01 0.0000000000000000e+00  -3.2850701239273306e-05 1.9306933741270654e-01 0.0000000000000000e+00  -3.5001503458676211e-02 1.9393621284899437e-01 0.0000000000000000e+00  -7.5551709468901482e-02 1.9873182487277685e-01 0.0000000000000000e+00  -1.1261083685155664e-01 9.7770193960090828e-03 0.0000000000000000e+00  -1.1349073478067162e-01 1.1005075207684586e-02 0.0000000000000000e+00  -1.1216645434865705e-01 1.2414871112110332e-02 0.0000000000000000e+00  -8.4190602613452917e-02 -1.2576103666042240e+01 0.0000000000000000e+00  -4.5504351502644237e-02 -1.3104509976798868e+01 0.0000000000000000e+00  -1.7764267242680033e-02 -1.2554773111392441e+01 0.0000000000000000e+00  1.3469068924940119e-10 -1.4280043704702457e-10 0.0000000000000000e+00  0.0000000000000000e+00 0.0000000000000000e+00 0.0000000000000000e+00  2.1457407694850252e-02 -1.2617020710385068e+01 0.0000000000000000e+00  5.0519675719641229e-02 -1.3149032349681804e+01 0.0000000000000000e+00  7.0988524009723372e-02 -1.2608150283762967e+01 0.0000000000000000e+00  1.0756081091801695e-01 -5.1647733313702421e-03 0.0000000000000000e+00  1.0895497353256199e-01 -1.1708937369050319e-03 0.0000000000000000e+00  1.0816349983923625e-01 2.6713972071010744e-03 0.0000000000000000e+00  7.0310417537705852e-02 2.7094172185653015e-01 0.0000000000000000e+00  3.3679094624737768e-02 2.6073252169658007e-01 0.0000000000000000e+00  -5.4821360297815014e-04 2.5971681968315391e-01 0.0000000000000000e+00  -3.4544064988429421e-02 2.6171077581036761e-01 0.0000000000000000e+00  -7.4434758575986401e-02 2.7080291711700688e-01 0.0000000000000000e+00  -1.0920276638091546e-01 1.5197212015395374e-02 0.0000000000000000e+00  -1.1048818723481187e-01 1.1047320517614341e-02 0.0000000000000000e+00  -1.0959105403521556e-01 7.0646965753415033e-03 0.0000000000000000e+00  -8.2083562671020738e-02 -1.2635337318312661e+01 0.0000000000000000e+00  -4.6811607423414343e-02 -1.3157505377825522e+01 0.0000000000000000e+00  -1.9540024659651385e-02 -1.2606842077370192e+01 0.0000000000000000e+00  0.0000000000000000e+00 0.0000000000000000e+00 0.0000000000000000e+00  0.0000000000000000e+00 0.0000000000000000e+00 0.0000000000000000e+00  1.8696389505614190e-02 -1.2663990458515695e+01 0.0000000000000000e+00  4.3951490879739805e-02 -1.3195646088290783e+01 0.0000000000000000e+00  6.0121429686685067e-02 -1.2658738122582118e+01 0.0000000000000000e+00  9.2279076246547909e-02 -9.1287934812260881e-03 0.0000000000000000e+00  9.3860196230517556e-02 -2.4465265908224602e-04 0.0000000000000000e+00  9.3551870202864637e-02 8.5230738402649175e-03 0.0000000000000000e+00  5.9459334192478334e-02 3.3689466142488311e-01 0.0000000000000000e+00  2.8566521993202622e-02 3.2294303797569851e-01 0.0000000000000000e+00  -9.3747665327589553e-04 3.2089902318802238e-01 0.0000000000000000e+00  -3.0242352025993246e-02 3.2382329098416562e-01 0.0000000000000000e+00  -6.5201692884991114e-02 3.3693880604988907e-01 0.0000000000000000e+00  -9.3859090941706705e-02 1.9349656238926975e-02 0.0000000000000000e+00  -9.5325065281395269e-02 1.0318245845997923e-02 0.0000000000000000e+00  -9.4920590771352495e-02 1.4133647290410624e-03 0.0000000000000000e+00  -7.0274005918850205e-02 -1.2686442334235229e+01 0.0000000000000000e+00  -4.1734965846602162e-02 -1.3203732911409265e+01 0.0000000000000000e+00  -1.8657785169386931e-02 -1.2652657974114419e+01 0.0000000000000000e+00  0.0000000000000000e+00 0.0000000000000000e+00 0.0000000000000000e+00  0.0000000000000000e+00 0.0000000000000000e+00 0.0000000000000000e+00  1.4026783971358273e-02 -1.2700147026216428e+01 0.0000000000000000e+00  3.3118398313488888e-02 -1.3231566435079246e+01 0.0000000000000000e+00  4.2954833516360848e-02 -1.2697460627455893e+01 0.0000000000000000e+00  6.7013887002883341e-02 -1.1533105998863041e-02 0.0000000000000000e+00  6.8586928405049860e-02 1.2332590756852016e-03 0.0000000000000000e+00  6.8777862056584205e-02 1.3921877429477977e-02 0.0000000000000000e+00  4.2212477163094606e-02 3.8991683790805859e-01 0.0000000000000000e+00  2.0434022218227633e-02 3.7298624135169606e-01 0.0000000000000000e+00  -1.2004862516800659e-03 3.7002793261037614e-01 0.0000000000000000e+00  -2.2643974823527719e-02 3.7361507840960789e-01 0.0000000000000000e+00  -4.9050405618003307e-02 3.9005676487063839e-01 0.0000000000000000e+00  -6.8504918254863434e-02 2.1879302978247830e-02 0.0000000000000000e+00  -6.9957985892308533e-02 8.9936627169756849e-03 0.0000000000000000e+00  -7.0056093219571944e-02 -3.8023168855330666e-03 0.0000000000000000e+00  -5.0494191977508956e-02 -1.2724080537892547e+01 0.0000000000000000e+00  -3.1093967686586829e-02 -1.3238249961657420e+01 0.0000000000000000e+00  -1.5078289891530748e-02 -1.2687246593639529e+01 0.0000000000000000e+00  0.0000000000000000e+00 0.0000000000000000e+00 0.0000000000000000e+00  0.0000000000000000e+00 0.0000000000000000e+00 0.0000000000000000e+00  7.9753979190379676e-03 -1.2721585185151859e+01 0.0000000000000000e+00  1.9242498675161080e-02 -1.3252945623822708e+01 0.0000000000000000e+00  2.1438835032132654e-02 -1.2720198096093439e+01 0.0000000000000000e+00  3.4583129878282874e-02 -1.2173316399913604e-02 0.0000000000000000e+00  3.5983489466094282e-02 3.0823940826398112e-03 0.0000000000000000e+00  3.6650134768825393e-02 1.8298959564824569e-02 0.0000000000000000e+00  2.0432505943571183e-02 4.2429673278714053e-01 0.0000000000000000e+00  1.0145896573380489e-02 4.0548605828992074e-01 0.0000000000000000e+00  -1.3464599713519535e-03 4.0184282046686021e-01 0.0000000000000000e+00  -1.2633543776007339e-02 4.0576694373450128e-01 0.0000000000000000e+00  -2.7822362509120523e-02 4.2448827287553398e-01 0.0000000000000000e+00  -3.5987667988449525e-02 2.2586845862487718e-02 0.0000000000000000e+00  -3.7266731185158899e-02 7.2563783298354783e-03 0.0000000000000000e+00  -3.7845364547981201e-02 -8.02