<?xml version="1.0"?>
<VTKFile type="UnstructuredGrid"  version="0.1"  >
<UnstructuredGrid>
<Piece  NumberOfPoints="589" NumberOfCells="1080">
<Points>
<DataArray  type="Float64"  NumberOfComponents="3"  format="ascii">-9 0 0  -8 0 0  -7 0 0  -6 0 0  -5 0 0  -4 0 0  -3 0 0  -2 0 0  -1 0 0  0 0 0  1 0 0  2 0 0  3 0 0  4 0 0  5 0 0  6 0 0  7 0 0  8 0 0  9 0 0  -9 2 0  -7.999995743897218 2.000005753300301 0  -6.999991135831152 2.000010822037652 0  -5.999985327350649 2.000014652227897 0  -4.999976359326729 2.000017005632079 0  -3.999985479278826 2.000012617299453 0  -2.999994843079483 2.000008584188873 0  -1.999999493488154 2.000004849185363 0  -1.000000438804964 2.000001875168964 0  9.624115792377658e-07 2.000000493345332 0  1.000002637977715 2.000001183566424 0  2.000002616091062 2.00000369242173 0  2.999999622583296 2.00000669851201 0  3.999993391546904 2.000009648097467 0  4.9999846075832 2.000009985593671 0  5.999991089456408 2.000010033423032 0  6.999994832068227 2.000007921540761 0  7.999997557111365 2.000004336943144 0  9 2 0  -9.000000000009988 4 0  -7.999992895589392 4.00001424503532 0  -6.999987073312026 4.000026598403736 0  -5.999983292850112 4.000035211675627 0  -4.999981430729508 4.000038332921195 0  -3.999994406103334 4.000036101829929 0  -3.00000313063106 4.000024904356155 0  -2.000005525898016 4.000010422328522 0  -1.000002435190981 3.999998731930251 0  3.654291516765374e-06 3.999993811365139 0  1.00000994913311 3.999996875111488 0  2.000013769584427 4.000005756900486 0  3.000012466369113 4.000017708568089 0  4.000005263433445 4.000029281249077 0  4.9999940456108 4.000031666369098 0  5.999993135953892 4.000028705764473 0  6.999993734399635 4.000021734075102 0  7.999996242802205 4.000011683409968 0  9 4 0  -9 6 0  -7.999984918454492 6.00003030429479 0  -6.999974843497657 6.000057335941035 0  -5.999973585008298 6.000077739967174 0  -4.999982204793361 6.000088336221454 0  -4.000007136999765 6.000071558141102 0  -3.000018407506781 6.000037140431507 0  -2.000013735653658 6.000001208384734 0  -1.000002506460016 5.999981382416825 0  8.630954426254968e-06 5.999977220477642 0  1.000018454544901 5.99998302723548 0  2.000025884174641 5.999999422572138 0  3.000028811190227 6.000027148185424 0  4.000023512324361 6.000055504182983 0  5.000003574194277 6.000068485429743 0  5.999989149992691 6.00006342307966 0  6.999984996714812 6.000047863207937 0  7.999989933054111 6.000025561500916 0  9 6 0  -9 8 0  -7.999956912596993 8.000059457924021 0  -6.99992734634019 8.000114588109998 0  -5.999924363340137 8.000159503356105 0  -4.999959015815361 8.000184500405776 0  -4.00000742277563 8.000108109693544 0  -2.999997363613561 8.000018643537743 0  -1.999978263110475 7.999975774826248 0  -0.9999763364641012 7.999971824482061 0  1.284164548465584e-05 7.99997082850233 0  1.000004416904622 7.999966552435771 0  2.000007082502706 7.999982882256914 0  3.000026922831388 8.000010795525196 0  4.000033553778427 8.000081569676905 0  4.999988433384943 8.000161583366378 0  5.999944077507108 8.000140135670508 0  6.999939897508398 8.000100963545092 0  7.999963098365297 8.000052481617058 0  9 8 0  -9 10 0  -7.999874802144657 10.00010593851777 0  -6.999773494558076 10.00021272482741 0  -5.999724580355188 10.00032098034078 0  -4.999767648361598 10.00043081984184 0  -3.999845150261866 10.00018239674821 0  -2.999830566089857 9.999969218842693 0  -1.999860851560303 10.00000881482453 0  -0.9999286488737804 10.00002159266204 0  2.226135636063431e-05 10.00002470135139 0  0.9999741240696588 10.0000241799169 0  1.999910784370093 10.00002434757115 0  2.99985405432386 9.9999508687666 0  3.999860098568552 10.0001373205806 0  4.999778087573962 10.00038365482956 0  5.999738263371092 10.00028777473024 0  6.999785251300567 10.00019131893485 0  7.999881445473208 10.00009541039314 0  9 10 0  -9 12 0  -7.999697036961284 12.00014906253983 0  -6.999409916539658 12.00030504327172 0  -5.999156573506804 12.00047622347949 0  -4.998959116611812 12.00067418754672 0  -3.998999346624139 12.00021838084357 0  -2.998961686931067 11.99976662466731 0  -1.999264947754713 11.99982488815351 0  -0.9996063293436289 11.99985847553704 0  3.684731294497653e-05 11.99986873952038 0  0.9996743770567549 11.99985503942386 0  1.999313960493583 11.9998124299523 0  2.998970500782429 11.99972822884444 0  3.99900463740276 12.00017414034899 0  4.998982535590947 12.00062331035511 0  5.99918501801371 12.00043778103966 0  6.999433689586365 12.00027952482928 0  7.999710296396898 12.00013637092105 0  9 12 0  -9 14 0  -7.999455706278083 14.0001645532688 0  -6.998910916748474 14.00033663218786 0  -5.998364488139632 14.00052443089605 0  -4.997813369438584 14.00073744876697 0  -3.997808518913148 14.00020046299212 0  -2.997803674090682 13.99965643741703 0  -1.998516928129559 13.99973973776301 0  -0.9992224210779069 13.99978871575672 0  7.402980426194023e-05 13.99980868903182 0  0.9993666452947859 13.99980160167334 0  1.998649777951591 13.99976697048822 0  2.997918617510121 13.99970281220039 0  3.997910592144555 14.00018941280941 0  4.997909505607637 14.00067253530615 0  5.998446617914895 14.0004788241047 0  6.998970155825718 14.00030739794574 0  7.999486617527261 14.00015024083389 0  9 14 0  -9 16 0  -7.999216090531897 16.00014996792383 0  -6.998418032024703 16.00030539770508 0  -5.997590454199859 16.00047184490906 0  -4.996715344352151 16.00065493856983 0  -3.996685520814181 16.00018978445464 0  -2.996712740549619 15.9997268901182 0  -1.997800628947403 15.99979208174237 0  -0.9988466037549972 15.99983513854429 0  0.0001265271751311185 15.99985702667094 0  0.9990971011842341 15.9998584800818 0  1.998043348307809 15.99983975783744 0  2.996942042083508 15.99980075139916 0  3.996909205570643 16.00020027297776 0  4.996937881548155 16.00059996040042 0  5.997761847442523 16.0004308107763 0  6.998534526349157 16.00027825348597 0  7.999275019746558 16.00013647593738 0  9 16 0  -9 18 0  -7.999032786989968 18.0001135421319 0  -6.998042715482118 18.00023012086348 0  -5.997005734690312 18.00035271614469 0  -4.995895352917495 18.00048415722847 0  -3.99584974272722 18.00018548069874 0  -2.995892325481928 17.99988701712653 0  -1.997252835010242 17.9999331280012 0  -0.9985476251229474 17.9999664058463 0  0.0001892016548225397 17.99998726976232 0  0.9989251707561723 17.99999622241675 0  1.997627845191968 17.99999383470687 0  2.996263269183828 17.9999808102555 0  3.996217421856444 18.00020875052822 0  4.996261340290902 18.00043574571304 0  5.997281471247817 18.00031647962732 0  6.998227171185223 18.00020602131888 0  7.999125211969899 18.00010151509617 0  9 18 0  -9 20 0  -7.998940652566167 20.00006496514198 0  -6.997854516425677 20.000130783176 0  -5.996713769690491 20.00019821630347 0  -4.995488510015902 20.00026783458099 0  -3.995436224647299 20.00018373189418 0  -2.995486333074767 20.00009976787306 0  -1.996968859838181 20.00012562636473 0  -0.9983755765625526 20.00014745174442 0  0.000255260023450232 20.00016527912915 0  0.9988867795290751 20.00017944211966 0  1.997482161874831 20.00019056414117 0  2.99600330064665 20.00019958363619 0  3.995952778755416 20.0002131636578 0  4.99600298468811 20.00022594716595 0  5.997098051015687 20.00016693056455 0  6.998109984791737 20.0001099867749 0  7.999068177130829 20.00005458547971 0  8.999999999970324 20.00000000000431 0  -9 22 0  -7.998955430629182 22.00001297042313 0  -6.997884247655956 22.00002498151104 0  -5.99675900408674 22.00003497264975 0  -4.99555058017451 22.00004167824561 0  -3.99549934525711 22.00018454633854 0  -2.995549039493197 22.00032746286672 0  -1.996989061800352 22.00033429596697 0  -0.9983541912728151 22.00034453118299 0  0.000318567699069061 22.00035798657759 0  0.9989933463791338 22.00037486165073 0  1.997634340301707 22.00039573077604 0  2.996204739403696 22.00042155082257 0  3.996156858487368 22.00021462912465 0  4.996205799738928 22.00000702136807 0  5.997246421887311 22.00000908916165 0  6.998207324906893 22.00000777929782 0  7.999116415400855 22.0000043856871 0  9 22 0  -9 24 0  -7.999076420456504 23.99996481136663 0  -6.998129707173648 23.99992725601125 0  -5.997136107121893 23.99988486394385 0  -4.996070609374772 23.99983496140495 0  -3.996026486260545 24.00018710888907 0  -2.996069652127144 24.00053916937248 0  -1.997309728616174 24.00052932051153 0  -0.9984847750080781 24.00052869430801 0  0.0003738111355103241 24.00053697821749 0  0.9992354972242047 24.00055426394898 0  1.998069822861089 24.00058104573531 0  2.996845608116608 24.000618223756 0  3.996806039176543 24.00021342813066 0  4.99684762041915 23.99980799968152 0  5.997712950224583 23.99986475913569 0  6.998511488813806 23.99991390726339 0  7.999266483646939 23.99995815321302 0  9 24 0  -9 26 0  -7.999289676425518 25.99992612209913 0  -6.998562180610324 25.99984887598107 0  -5.997799937059439 25.99976479071972 0  -4.996984524383222 25.99967019403735 0  -3.996952012939436 26.00019069414889 0  -2.996984007397998 26.00071101026355 0  -1.997891363436513 26.00068737331897 0  -0.998750272314245 26.00067713572226 0  0.0004166926383506767 26.00067987892234 0  0.9995875513227181 26.00069559457944 0  1.998740400753681 26.00072468256182 0  2.997852899780175 26.00076795310818 0  3.997825800755256 26.00021000065014 0  4.997855585148017 25.99965151378102 0  5.998445911151646 25.99975088321081 0  6.99898938178785 25.99983965200638 0  7.999502249488847 25.99992152417062 0  9 26 0  -9 28 0  -7.999571315446357 27.99990090948443 0  -6.999133083358518 27.99979785178987 0  -5.998675565043336 27.9996867583656 0  -4.998188583093979 27.99956335999217 0  -3.998170603865995 28.00019473296912 0  -2.998188246883957 28.00082585260452 0  -1.998667612323172 28.00079174738777 0  -0.9991196358287102 28.00077356842762 0  0.0004440409050510632 28.00077080281467 0  1.000012099386952 28.00078334410777 0  1.999573300628167 28.00081149230194 0  2.999116242240156 28.0008559541312 0  3.999104296771475 28.00020492758527 0  4.999119431777131 27.99955348622995 0  5.999365518619745 27.99967942550314 0  6.999589195389056 27.999792996
[...]
<PointData  Vectors="f_44-0"> 
<DataArray  type="Float64"  Name="f_44-0"  NumberOfComponents="3" format="ascii">0.0000000000000000e+00 0.0000000000000000e+00 0.0000000000000000e+00  1.7663860502880716e-07 -1.1579308140137858e+01 0.0000000000000000e+00  2.6862737538686896e-07 -1.2480053726566815e+01 0.0000000000000000e+00  2.3482939690929397e-07 -1.1777597602262357e+01 0.0000000000000000e+00  0.0000000000000000e+00 0.0000000000000000e+00 0.0000000000000000e+00  0.0000000000000000e+00 0.0000000000000000e+00 0.0000000000000000e+00  0.0000000000000000e+00 0.0000000000000000e+00 0.0000000000000000e+00  0.0000000000000000e+00 0.0000000000000000e+00 0.0000000000000000e+00  0.0000000000000000e+00 0.0000000000000000e+00 0.0000000000000000e+00  0.0000000000000000e+00 0.0000000000000000e+00 0.0000000000000000e+00  0.0000000000000000e+00 0.0000000000000000e+00 0.0000000000000000e+00  0.0000000000000000e+00 0.0000000000000000e+00 0.0000000000000000e+00  0.0000000000000000e+00 0.0000000000000000e+00 0.0000000000000000e+00  0.0000000000000000e+00 0.0000000000000000e+00 0.0000000000000000e+00  0.0000000000000000e+00 0.0000000000000000e+00 0.0000000000000000e+00  1.7755697934266142e-07 -1.1552567095659574e+01 0.0000000000000000e+00  2.6472407096641864e-07 -1.2456274728293035e+01 0.0000000000000000e+00  2.3064086837592366e-07 -1.1755465689198587e+01 0.0000000000000000e+00  0.0000000000000000e+00 0.0000000000000000e+00 0.0000000000000000e+00  0.0000000000000000e+00 0.0000000000000000e+00 0.0000000000000000e+00  -1.6488092249027329e-02 -1.1714167612487367e+01 0.0000000000000000e+00  -2.0445561407321903e-02 -1.2465012540284189e+01 0.0000000000000000e+00  -3.8850522777735007e-02 -1.1717072953292572e+01 0.0000000000000000e+00  -3.1364620177763551e-04 6.1499932306645008e-04 0.0000000000000000e+00  -5.9258113351495572e-04 8.4069616246356185e-04 0.0000000000000000e+00  -3.6486151000128129e-04 5.2432113572723979e-04 0.0000000000000000e+00  -3.3475431595912777e-04 6.2492862475219130e-05 0.0000000000000000e+00  -1.8290119546270946e-04 -2.0964566857916602e-04 0.0000000000000000e+00  -8.7653734274615485e-06 -1.9793852050366460e-04 0.0000000000000000e+00  1.6844364930724222e-04 2.2076038443771184e-05 0.0000000000000000e+00  2.6388397793696954e-04 3.4372944431170676e-04 0.0000000000000000e+00  3.2344518886100865e-04 8.1043452364590362e-04 0.0000000000000000e+00  3.5218518458665946e-04 9.5794918921372622e-04 0.0000000000000000e+00  4.5774311417883835e-04 1.3988526045871034e-03 0.0000000000000000e+00  -1.7438820785080376e-02 -1.1693178850796498e+01 0.0000000000000000e+00  -2.1758745263194903e-02 -1.2445431298266790e+01 0.0000000000000000e+00  -4.0849849283367302e-02 -1.1696462109828170e+01 0.0000000000000000e+00  0.0000000000000000e+00 0.0000000000000000e+00 0.0000000000000000e+00  0.0000000000000000e+00 0.0000000000000000e+00 0.0000000000000000e+00  -1.4661119124908866e-02 -1.1720253656271233e+01 0.0000000000000000e+00  -2.5212207212944395e-02 -1.2491210227560783e+01 0.0000000000000000e+00  -3.5551827911264190e-02 -1.1708709417581719e+01 0.0000000000000000e+00  1.1654129461347769e-03 1.9689882397635585e-03 0.0000000000000000e+00  1.5743978396763511e-04 7.6487688632407376e-04 0.0000000000000000e+00  -2.0810365809063267e-04 -4.0361222305615685e-04 0.0000000000000000e+00  -2.1360763099798923e-04 -7.6979173138334823e-04 0.0000000000000000e+00  9.8958279983304008e-05 -4.6772042252037749e-04 0.0000000000000000e+00  3.1663992017912492e-04 -6.8153403951757389e-05 0.0000000000000000e+00  3.7222349272895646e-04 9.2016774090547272e-05 0.0000000000000000e+00  4.9201538870213160e-05 6.2054307902166539e-04 0.0000000000000000e+00  -7.9193109178368574e-05 1.2598228611592041e-03 0.0000000000000000e+00  -1.0760389046407213e-04 1.1818308801009466e-03 0.0000000000000000e+00  -1.5523984215865260e-04 8.8496160794768349e-04 0.0000000000000000e+00  -1.5015554442063071e-02 -1.1692869217626090e+01 0.0000000000000000e+00  -2.5644387574465438e-02 -1.2464256413446735e+01 0.0000000000000000e+00  -3.6542473743746050e-02 -1.1680881248020073e+01 0.0000000000000000e+00  0.0000000000000000e+00 0.0000000000000000e+00 0.0000000000000000e+00  0.0000000000000000e+00 0.0000000000000000e+00 0.0000000000000000e+00  -7.2594296203805191e-03 -1.1709907252774709e+01 0.0000000000000000e+00  -1.1803502101924811e-02 -1.2484181278935086e+01 0.0000000000000000e+00  -2.5086304797505250e-02 -1.1693269829606400e+01 0.0000000000000000e+00  2.0396587936211438e-03 8.5751073481302534e-04 0.0000000000000000e+00  6.1715605590968487e-04 -1.0350697377026509e-03 0.0000000000000000e+00  3.0228176695645169e-04 -1.3267422980752664e-03 0.0000000000000000e+00  9.5388501435648054e-04 4.6575280723571701e-04 0.0000000000000000e+00  6.7977391938914766e-04 1.1736374300491753e-03 0.0000000000000000e+00  1.7702987661162602e-04 3.2962583089318195e-04 0.0000000000000000e+00  -1.7243166568724493e-04 3.2862169556257887e-05 0.0000000000000000e+00  1.0331015680499451e-04 3.0494641208048660e-04 0.0000000000000000e+00  -1.3497000880232027e-04 7.4858664087504810e-04 0.0000000000000000e+00  -7.0076427884881501e-04 2.7183859717739320e-03 0.0000000000000000e+00  -4.0002341451282554e-04 4.3844541006987040e-03 0.0000000000000000e+00  -1.0469439691697476e-02 -1.1684680921924746e+01 0.0000000000000000e+00  -1.7639001916127786e-02 -1.2463195091646853e+01 0.0000000000000000e+00  -3.1820659334480868e-02 -1.1679086771234690e+01 0.0000000000000000e+00  0.0000000000000000e+00 0.0000000000000000e+00 0.0000000000000000e+00  0.0000000000000000e+00 0.0000000000000000e+00 0.0000000000000000e+00  -4.5998044232339616e-03 -1.1714750991840528e+01 0.0000000000000000e+00  -6.0692411161829760e-03 -1.2486296389775434e+01 0.0000000000000000e+00  -2.1003113533083432e-02 -1.1698131882714380e+01 0.0000000000000000e+00  7.2738998219235287e-03 5.5200145339688667e-03 0.0000000000000000e+00  7.3499435171721717e-03 9.3483353363047839e-04 0.0000000000000000e+00  2.3781513407671855e-03 3.3083320689146346e-03 0.0000000000000000e+00  2.6750238757292356e-03 5.1138822466523020e-03 0.0000000000000000e+00  -4.7513595204605238e-05 2.3255565347091397e-03 0.0000000000000000e+00  -1.1077057420562303e-03 1.8189375718877206e-03 0.0000000000000000e+00  -2.7788467461952442e-03 4.1748697937590562e-03 0.0000000000000000e+00  -2.5905793641111991e-03 5.3371557095165090e-04 0.0000000000000000e+00  -8.8679353470509179e-03 3.5157887507303960e-03 0.0000000000000000e+00  -9.4196247743249441e-03 9.9883418953201526e-03 0.0000000000000000e+00  -6.7907658581617941e-03 1.1296724496636906e-02 0.0000000000000000e+00  -7.6911777141757207e-03 -1.1687579610310003e+01 0.0000000000000000e+00  -7.4845214401673445e-03 -1.2460983518093659e+01 0.0000000000000000e+00  -2.2423560911182236e-02 -1.1679385853755544e+01 0.0000000000000000e+00  0.0000000000000000e+00 0.0000000000000000e+00 0.0000000000000000e+00  0.0000000000000000e+00 0.0000000000000000e+00 0.0000000000000000e+00  -2.8083080515312890e-03 -1.1717855271720724e+01 0.0000000000000000e+00  3.8082191419955939e-03 -1.2486554616570603e+01 0.0000000000000000e+00  6.7813774017977814e-04 -1.1698793772819490e+01 0.0000000000000000e+00  3.4895409843016811e-02 -1.2766783062159175e-03 0.0000000000000000e+00  2.6313885776243308e-02 -3.2970401735117013e-03 0.0000000000000000e+00  1.5860784934200484e-02 -5.1758985778418819e-03 0.0000000000000000e+00  1.7750005507764020e-03 1.0545541553010757e-02 0.0000000000000000e+00  2.3862890875858759e-04 4.5029717944514097e-03 0.0000000000000000e+00  -2.4989587472400870e-03 3.3776476203332085e-03 0.0000000000000000e+00  -4.9858185668061380e-03 3.5057737054120046e-03 0.0000000000000000e+00  -6.1446718507057532e-03 3.8857242822146637e-03 0.0000000000000000e+00  -2.2132682423944623e-02 4.1775489157762869e-03 0.0000000000000000e+00  -2.6081526151813816e-02 1.3163682020050983e-02 0.0000000000000000e+00  -2.9258531803351327e-02 2.1107466846847483e-02 0.0000000000000000e+00  -1.6152922083628046e-02 -1.1688385525104776e+01 0.0000000000000000e+00  -7.6701658051629550e-03 -1.2462112904801202e+01 0.0000000000000000e+00  -1.4006886170624787e-02 -1.1682659399418950e+01 0.0000000000000000e+00  0.0000000000000000e+00 0.0000000000000000e+00 0.0000000000000000e+00  0.0000000000000000e+00 0.0000000000000000e+00 0.0000000000000000e+00  1.2402983018581135e-04 -1.1729013319476831e+01 0.0000000000000000e+00  1.3793911832586237e-02 -1.2496093982522094e+01 0.0000000000000000e+00  1.7418989315860275e-02 -1.1707875905260885e+01 0.0000000000000000e+00  3.9078796688144991e-02 8.3404305743658372e-03 0.0000000000000000e+00  4.3331421399413463e-02 -3.6850010584435636e-03 0.0000000000000000e+00  5.1656850317854414e-02 -2.2173683059692861e-02 0.0000000000000000e+00  1.7195021528970379e-02 2.3841890905353019e-02 0.0000000000000000e+00  4.6173290667972785e-03 2.4337057988076879e-02 0.0000000000000000e+00  -4.1956881434999944e-03 2.5306666411018086e-02 0.0000000000000000e+00  -1.1947220563035517e-02 2.2849170680200096e-02 0.0000000000000000e+00  -2.0201963841594364e-02 1.6584895367375566e-02 0.0000000000000000e+00  -3.4524519691004292e-02 9.9689313731495303e-04 0.0000000000000000e+00  -4.0471265843513154e-02 1.0574556614464138e-02 0.0000000000000000e+00  -4.6692834689195453e-02 1.6640190618026057e-02 0.0000000000000000e+00  -2.8087459559895937e-02 -1.1691602124335732e+01 0.0000000000000000e+00  -1.3055187325632194e-02 -1.2473064629323789e+01 0.0000000000000000e+00  -1.1455026395095005e-02 -1.1694214728826266e+01 0.0000000000000000e+00  0.0000000000000000e+00 0.0000000000000000e+00 0.0000000000000000e+00  0.0000000000000000e+00 0.0000000000000000e+00 0.0000000000000000e+00  4.4043679045296822e-03 -1.1752465949180950e+01 0.0000000000000000e+00  2.5462077314266997e-02 -1.2518383273190993e+01 0.0000000000000000e+00  3.7348322977334099e-02 -1.1732295492354755e+01 0.0000000000000000e+00  4.8768005143785847e-02 1.6649587240431637e-02 0.0000000000000000e+00  5.2108797851596229e-02 5.3245054302626842e-03 0.0000000000000000e+00  5.3870246554513633e-02 -1.9421411192337612e-03 0.0000000000000000e+00  4.4943246665687810e-02 5.1866787132351738e-02 0.0000000000000000e+00  2.0599681955288815e-02 5.5541285260802084e-02 0.0000000000000000e+00  -1.3005662828661912e-03 5.7551428751251764e-02 0.0000000000000000e+00  -2.1469107836903693e-02 5.5763376001826320e-02 0.0000000000000000e+00  -3.9339853584637513e-02 5.2041382684308177e-02 0.0000000000000000e+00  -5.0858383283004530e-02 -7.8116640042451080e-03 0.0000000000000000e+00  -5.4059189688597346e-02 3.9173672666580547e-03 0.0000000000000000e+00  -5.5821950870019510e-02 1.7048362070553630e-02 0.0000000000000000e+00  -4.7739105498801809e-02 -1.1717870489890744e+01 0.0000000000000000e+00  -2.0584419263946652e-02 -1.2497000222921754e+01 0.0000000000000000e+00  -1.2825923938700693e-02 -1.1720310964047139e+01 0.0000000000000000e+00  0.0000000000000000e+00 0.0000000000000000e+00 0.0000000000000000e+00  0.0000000000000000e+00 0.0000000000000000e+00 0.0000000000000000e+00  9.2166505495990397e-03 -1.1790096660969349e+01 0.0000000000000000e+00  3.7259500847926154e-02 -1.2555436137329984e+01 0.0000000000000000e+00  5.5947134938972840e-02 -1.1773120559526669e+01 0.0000000000000000e+00  6.4693301336548284e-02 2.0756978868971085e-02 0.0000000000000000e+00  6.7896032948501397e-02 1.1019349543293476e-02 0.0000000000000000e+00  6.9629371724403991e-02 1.0044902151441317e-03 0.0000000000000000e+00  5.8772740851924028e-02 1.0742916677288934e-01 0.0000000000000000e+00  2.7905287416838610e-02 1.0692122885610701e-01 0.0000000000000000e+00  -1.5317545384460891e-03 1.0772296594624657e-01 0.0000000000000000e+00  -3.0358148699974122e-02 1.0598332434634117e-01 0.0000000000000000e+00  -6.0361956920997523e-02 1.0431743987083192e-01 0.0000000000000000e+00  -6.7639891744001340e-02 -1.0485682246196573e-02 0.0000000000000000e+00  -7.0515869536421361e-02 1.0264981757566366e-04 0.0000000000000000e+00  -7.2025011666340094e-02 9.7169828248295318e-03 0.0000000000000000e+00  -6.6325711316045644e-02 -1.1761828279624284e+01 0.0000000000000000e+00  -3.1292874315423401e-02 -1.2537356584629059e+01 0.0000000000000000e+00  -1.4471770475486546e-02 -1.1761039821776231e+01 0.0000000000000000e+00  0.0000000000000000e+00 0.0000000000000000e+00 0.0000000000000000e+00  0.0000000000000000e+00 0.0000000000000000e+00 0.0000000000000000e+00  1.3366587306363630e-02 -1.1840079400512057e+01 0.0000000000000000e+00  4.6740632985753185e-02 -1.2605089115005677e+01 0.0000000000000000e+00  6.9850853417988759e-02 -1.1827561639714611e+01 0.0000000000000000e+00  7.8114463707616405e-02 2.0122080965688145e-02 0.0000000000000000e+00  8.0572910162083275e-02 1.3760204021040444e-02 0.0000000000000000e+00  8.0396500759477338e-02 7.8782374048454538e-03 0.0000000000000000e+00  7.1594642520082463e-02 1.7270450036386989e-01 0.0000000000000000e+00  3.4173869407758455e-02 1.7047387388306950e-01 0.0000000000000000e+00  -1.9071449324058176e-03 1.7159105783797579e-01 0.0000000000000000e+00  -3.7570507919690854e-02 1.7090749551808138e-01 0.0000000000000000e+00  -7.4966065684937924e-02 1.7293534134703373e-01 0.0000000000000000e+00  -8.2342660273709040e-02 -9.2302912433928404e-03 0.0000000000000000e+00  -8.4744625262391127e-02 -2.6249032567013911e-03 0.0000000000000000e+00  -8.4547156302677770e-02 3.5934991113609153e-03 0.0000000000000000e+00  -8.1855487958997997e-02 -1.1820240752397515e+01 0.0000000000000000e+00  -4.2486212752402858e-02 -1.2590195920950823e+01 0.0000000000000000e+00  -1.7846974114065366e-02 -1.1813567561291006e+01 0.0000000000000000e+00  0.0000000000000000e+00 0.0000000000000000e+00 0.0000000000000000e+00  0.0000000000000000e+00 0.0000000000000000e+00 0.0000000000000000e+00  1.5921599345264964e-02 -1.1897839971201986e+01 0.0000000000000000e+00  5.1986213590244232e-02 -1.2662504756245312e+01 0.0000000000000000e+00  7.6537915580502380e-02 -1.1890107117125355e+01 0.0000000000000000e+00  8.4794841852767353e-02 1.6390838667030012e-02 0.0000000000000000e+00  8.6482943754911432e-02 1.5130512097384866e-02 0.0000000000000000e+00  8.5370677545320545e-02 1.4247708248897858e-02 0.0000000000000000e+00  7.6219072173485350e-02 2.5175889337384649e-01 0.0000000000000000e+00  3.6570164225947319e-02 2.4491339712791915e-01 0.0000000000000000e+00  -2.3492717900287074e-03 2.4482948952588451e-01 0.0000000000000000e+00  -4.1004828489368969e-02 2.4521291948287804e-01 0.0000000000000000e+00  -8.2140363243234510e-02 2.5189863050001837e-01 0.0000000000000000e+00  -9.0163962703652969e-02 -5.0067440779234303e-03 0.0000000000000000e+00  -9.1766083934013795e-02 -3.4575326813207018e-03 0.0000000000000000e+00  -9.0510271393612743e-02 -2.2404586722950168e-03 0.0000000000000000e+00  -8.9759369480307563e-02 -1.1887185550122501e+01 0.0000000000000000e+00  -5.0476815680298513e-02 -1.2650958685124753e+01 0.0000000000000000e+00  -2.1939471939895615e-02 -1.1873433877741089e+01 0.0000000000000000e+00  1.3354152382240445e-09 -2.1780636720029302e-10 0.0000000000000000e+00  0.0000000000000000e+00 0.0000000000000000e+00 0.0000000000000000e+00  1.6347499966080842e-02 -1.1957338264409085e+01 0.0000000000000000e+00  5.1950329875329097e-02 -1.2721553187686739e+01 0.0000000000000000e+00  7.4742100643326981e-02 -1.1953978318521596e+01 0.0000000000000000e+00  8.2701782667795154e-02 1.0899405112652296e-02 0.0000000000000000e+00  8.3616503592179356e-02 1.5067494053227569e-02 0.0000000000000000e+00  8.1794348020322871e-02 1.9517769271053760e-02 0.0000000000000000e+00  7.2774822069399947e-02 3.3224360190918401e-01 0.0000000000000000e+00  3.4979838682361819e-02 3.2086825771306238e-01 0.0000000000000000e+00  -2.6717480799446488e-03 3.1979599282967031e-01 0.0000000000000000e+00  -4.0224155105988736e-02 3.2129558748975395e-01 0.0000000000000000e+00  -8.0800929943572020e-02 3.3277113841345263e-01 0.0000000000000000e+00  -8.8971487604004237e-02 9.5233069866809542e-04 0.0000000000000000e+00  -8.9801884441082364e-02 -2.9984666883548974e-03 0.0000000000000000e+00  -8.7882257596754568e-02 -7.2349099416019755e-03 0.0000000000000000e+00  -8.8661289454548362e-02 -1.1955694835271807e+01 0.0000000000000000e+00  -5.2984734470427543e-02 -1.2713349257503408e+01 0.0000000000000000e+00  -2.4926936621336850e-02 -1.1935005959290780e+01 0.0000000000000000e+00  0.0000000000000000e+00 0.0000000000000000e+00 0.0000000000000000e+00  0.0000000000000000e+00 0.0000000000000000e+00 0.0000000000000000e+00  1.4488619635657406e-02 -1.2012106063060838e+01 0.0000000000000000e+00  4.6453042596135807e-02 -1.2775795346251879e+01 0.0000000000000000e+00  6.4477446506879463e-02 -1.2012188583837833e+01 0.0000000000000000e+00  7.1477061509436071e-02 4.6644333864387455e-03 0.0000000000000000e+00  7.1613119168033298e-02 1.3868416567474597e-02 0.0000000000000000e+00  6.9422408756797963e-02 2.3285587041597486e-02 0.0000000000000000e+00  6.1275447397221870e-02 4.0632231506990502e-01 0.0000000000000000e+00  2.9452287944428081e-02 3.9060688475913524e-01 0.0000000000000000e+00  -2.9186558640741920e-03 3.8850538137222013e-01 0.0000000000000000e+00  -3.5305604610912714e-02 3.9096291797641125e-01 0.0000000000000000e+00  -7.0969868243438178e-02 4.0690789365206526e-01 0.0000000000000000e+00  -7.8428281009426240e-02 7.5496541489892613e-03 0.0000000000000000e+00  -7.8499630458371397e-02 -1.5028904234079491e-03 0.0000000000000000e+00  -7.6224187363664195e-02 -1.0760627980973733e-02 0.0000000000000000e+00  -7.8574316690565929e-02 -1.2018475552712882e+01 0.0000000000000000e+00  -4.9323196884550551e-02 -1.2770703608802270e+01 0.0000000000000000e+00  -2.5560697557777637e-02 -1.1991951026905035e+01 0.0000000000000000e+00  0.0000000000000000e+00 0.0000000000000000e+00 0.0000000000000000e+00  0.0000000000000000e+00 0.0000000000000000e+00 0.0000000000000000e+00  1.0516717144976949e-02 -1.2056128137253154e+01 0.0000000000000000e+00  3.6046020064763928e-02 -1.2819295545999543e+01 0.0000000000000000e+00  4.6840534092698963e-02 -1.2058375820052602e+01 0.0000000000000000e+00  5.2145167759276974e-02 -1.4298075964550437e-03 0.0000000000000000e+00  5.1549569819486135e-02 1.1813399998858984e-02 0.0000000000000000e+00  4.9272433861032187e-02 2.5197496118737971e-02 0.0000000000000000e+00  4.2953681624186224e-02 4.6580642043405329e-01 0.0000000000000000e+00  2.0549601729508368e-02 4.4654265581505231e-01 0.0000000000000000e+00  -3.0872716514276691e-03 4.4357205905912350e-01 0.0000000000000000e+00  -2.6812426473049787e-02 4.4676218961952940e-01 0.0000000000000000e+00  -5.3822776078299529e-02 4.6636179483184481e-01 0.0000000000000000e+00  -5.9564594222475661e-02 1.3895535169398872e-02 0.0000000000000000e+00  -5.8925361236726176e-02 7.4466989676711867e-04 0.0000000000000000e+00  -5.6587444731871973e-02 -1.2540178181905792e-02 0.0000000000000000e+00  -6.0651435068047030e-02 -1.2068949450207358e+01 0.0000000000000000e+00  -3.9918622871889464e-02 -1.2816998835484137e+01 0.0000000000000000e+00  -2.3406322124092403e-02 -1.2038261824780546e+01 0.0000000000000000e+00  0.0000000000000000e+00 0.0000000000000000e+00 0.0000000000000000e+00  0.0000000000000000e+00 0.0000000000000000e+00 0.0000000000000000e+00  4.8545568040055933e-03 -1.2084552047831625e+01 0.0000000000000000e+00  2.1848900264360371e-02 -1.2847288245190517e+01 0.0000000000000000e+00  2.3752105831724730e-02 -1.2087494282215889e+01 0.0000000000000000e+00  2.6782479014796669e-02 -6.6744975630537795e-03 0.0000000000000000e+00  2.5540567428359737e-02 9.1749480673362135e-03 0.0000000000000000e+00  2.3419896575762402e-02 2.5095393946998178e-02 0.0000000000000000e+00  1.9766083253414685e-02 5.0431358644163615e-01 0.0000000000000000e+00  9.2296279402713094e-03 4.8268326771814885e-01 0.0000000000000000e+00  -3.1786518666929026e-03 4.7910612879509101e-01 0.0000000000000000e+00  -1.5704331457927163e-02 4.8273058969926053e-01 0.0000000000000000e+00  -3.1280637823874920e-02 5.0476809143544887e-01 0.0000000000000000e+00  -3.4462439719855270e-02 1.9278179112525492e-02 0.0000000000000000e+00  -3.3197156772683527e-02 3.4627902113034468e-03 0.0000000000000000e+00  -3.1039161728057599e-02 -1.241436337983