<?xml version="1.0"?>
<VTKFile type="UnstructuredGrid"  version="0.1"  >
<UnstructuredGrid>
<Piece  NumberOfPoints="589" NumberOfCells="1080">
<Points>
<DataArray  type="Float64"  NumberOfComponents="3"  format="ascii">-9 0 0  -8 0 0  -7 0 0  -6 0 0  -5 0 0  -4 0 0  -3 0 0  -2 0 0  -1 0 0  0 0 0  1 0 0  2 0 0  3 0 0  4 0 0  5 0 0  6 0 0  7 0 0  8 0 0  9 0 0  -9 2 0  -8.00000700744501 1.999989567324893 0  -7.000014691106231 1.999980413973478 0  -6.000024645345387 1.999973578060005 0  -5.000040518684353 1.999969513070629 0  -4.000024097402366 1.9999772523824 0  -3.000007208174429 1.999984551674722 0  -1.999998945470024 1.999991385866581 0  -0.9999975096899023 1.99999678941874 0  -3.417875265741328e-07 1.999999172048833 0  0.9999965039188815 1.9999975678576 0  1.999996853063945 1.999992377775048 0  3.000003269985141 1.999986022954351 0  4.000016533383572 1.999979265439152 0  5.000035706850118 1.99997664523923 0  6.000021493367544 1.999977554299821 0  7.000012765896855 1.999982660936341 0  8.000006093341545 1.999990607145596 0  9 2 0  -9 4 0  -8.000011309876479 3.999974017973354 0  -7.000020299925614 3.999951558657144 0  -6.000025614219838 3.999936072674704 0  -5.000027532553933 3.99993085020364 0  -4.000003681248767 3.999934499458127 0  -2.999987653803486 3.999955012027671 0  -1.999983400094689 3.999981690566608 0  -0.9999893633620395 4.000003155303131 0  -8.919842562650017e-07 4.000011843445153 0  0.9999873220304358 4.000005188407341 0  1.999980485019397 3.999987108522368 0  2.999983800732785 3.999962642831961 0  3.999998847594005 3.99993810967966 0  5.000021829185829 3.999930126111738 0  6.00002104255767 3.999938318692449 0  7.000017311976742 3.999953964230124 0  8.000009869577818 3.999975428384346 0  9 4 0  -9 6 0  -8.000024890837148 5.999944380800748 0  -7.000040611702379 5.999894812797392 0  -6.000040166949385 5.999857515926509 0  -5.000021553821436 5.999838449680645 0  -3.999975097187773 5.999868879846463 0  -2.999953943082779 5.999932318852601 0  -1.999962234575046 5.999998788740302 0  -0.9999829578966418 6.000035731314076 0  -3.902694760078807e-06 6.000043188421033 0  0.9999773042001446 6.000031315079662 0  1.999963016557343 5.999998414092685 0  2.999957696356543 5.999942827444409 0  3.999968658443974 5.999885247672502 0  5.000008114683487 5.999856889038072 0  6.000032367513475 5.999869273818883 0  7.000036704520567 5.999901995993207 0  8.00002335334784 5.999947822564232 0  9 6 0  -9 8 0  -8.000075142927111 7.999890552757573 0  -7.000125580658991 7.999788997365622 0  -6.000127390117276 7.999706051426002 0  -5.000060117886637 7.999659376925259 0  -3.999970258876715 7.999799589313541 0  -2.99998689124683 7.999964286745626 0  -2.000020668048097 8.000044472868446 0  -1.000023559938792 8.000053519824583 0  -3.477042901094838e-06 8.000056137708343 0  1.000011601306899 8.000064182739436 0  2.00000555566397 8.000030914048134 0  2.999966753055549 7.999974257547771 0  3.999953707117416 7.999833726161719 0  5.0000416711298 7.999675132331462 0  6.000123345134726 7.999718899839452 0  7.000126837621973 7.999797625798807 0  8.000076835413873 7.999894825080744 0  9 8 0  -9 10 0  -8.000224145504575 9.999805213930781 0  -7.000404986945163 9.999608831759312 0  -6.000490868462074 9.999409645709488 0  -5.000409851999676 9.999207369626978 0  -4.000267341343293 9.999660198241251 0  -3.000290822743491 10.00004948852912 0  -2.000233090885587 9.999982150664817 0  -1.000107883936646 9.999960543729189 0  -1.573993660754014e-05 9.999955274998374 0  1.000075593188905 9.999955711129335 0  2.00019705983017 9.999953393231223 0  3.00030413738087 10.00009289600475 0  4.000290921551183 9.999725641597696 0  5.000452093820873 9.99924098544146 0  6.000526899226153 9.999428807316354 0  7.000430855236264 9.999619426669698 0  8.000237588729048 9.99980996580004 0  9 10 0  -9 12 0  -8.000546038395051 11.9997263805276 0  -7.001063700834436 11.99944008586665 0  -6.001520911328646 11.99912595511248 0  -5.001877882874473 11.99876284230418 0  -4.001804992469741 11.99958884236976 0  -3.001871095386964 12.00040662912332 0  -2.001286749512412 12.00030731476541 0  -1.000636454704639 12.00025332352446 0  3.888898701992176e-05 12.00024236546448 0  1.000721108402941 12.00027610802862 0  2.001394934974067 12.00036444975074 0  3.002030109186369 12.00053220670076 0  4.001960359380456 11.9996509941292 0  5.002006646163291 11.99876251550338 0  6.001613115824382 11.99912778981793 0  7.001123395259989 11.99944171113208 0  8.000575406143959 11.99972722702403 0  9 12 0  -9 14 0  -8.000980761867408 13.99969838483605 0  -7.001963144739187 13.9993829213887 0  -6.002950066331896 13.99903853891842 0  -5.003947787380588 13.99864776930414 0  -4.003958060167029 13.99961376463926 0  -3.003964247753091 14.00059198975049 0  -2.002605473704705 14.00045143865649 0  -1.001265780080444 14.00037419350183 0  6.616848005767628e-05 14.0003508579104 0  1.001401174599769 14.00037835885895 0  2.002749284296323 14.00045820590708 0  3.004118438777059 14.00059475100008 0  4.004129293730603 13.99961655943038 0  5.004135122671979 13.99864446523319 0  6.003082479814777 13.99903271199805 0  7.00204806498899 13.99937793267351 0  8.001022303119568 13.99969563253089 0  9 14 0  -9 16 0  -8.0014080822266 15.99972587354721 0  -7.002842920104045 15.99944162607551 0  -6.004333587333785 15.99913696154731 0  -5.005913900000626 15.99880139879142 0  -4.005970066398096 15.99962641526561 0  -3.005917275897288 16.00044706967588 0  -2.0038502527143 16.00034307566974 0  -1.00186516904938 16.00028001859875 0  8.125305780161492e-05 16.00025653969949 0  1.002029925949762 16.00027175187112 0  2.004021780489098 16.00032569528174 0  3.00610036995503 16.0004191301393 0  4.006159917578755 15.99959125068638 0  5.00610786084428 15.99876274098417 0  6.004476204572876 15.99911009727042 0  7.00293647093156 15.99942448855638 0  8.001454379963731 15.99971749957258 0  9 16 0  -9 18 0  -8.001727411030929 17.9997938702876 0  -7.003497640879168 17.99958209485284 0  -6.005355735406352 17.99935913159885 0  -5.00735117505014 17.99911967003133 0  -4.007436025156732 17.99962950431297 0  -3.007354501530286 18.00013868521176 0  -2.00477031275223 18.00007157218739 0  -1.002311337816694 18.00002815830363 0  8.727555586151478e-05 18.00000807709386 0  1.002487237164116 18.00001082575277 0  2.004950169395528 18.0000357986377 0  3.007540621640449 18.00008216523826 0  4.007627044581447 17.99957233884051 0  5.007544736595753 17.99906402121799 0  6.005499124890957 17.99931957224323 0  7.003592351607631 17.9995567067294 0  8.001774496874603 17.99978146029318 0  9 18 0  -9 20 0  -8.001874566149265 19.99988443484646 0  -7.003799125829055 19.9997673381781 0  -6.005825581066687 19.99964734707929 0  -5.008009650756942 19.99952343040359 0  -4.008106485190927 19.99962974496157 0  -3.008011090252502 19.9997353391596 0  -2.005192946044089 19.9997057176964 0  -1.002517690434607 19.99968342710237 0  8.783420448084271e-05 19.99966875313389 0  1.002694136617767 19.99966144546714 0  2.005371689462303 19.99966073646059 0  3.008193551326719 19.9996652949097 0  4.008290804515777 19.99956293391712 0  5.008194836870506 19.99946160802584 0  6.005963490184526 19.999602777752 0  7.003890587982994 19.99973848026544 0  8.001920151986683 19.9998702619733 0  8.999999999994197 19.9999999999934 0  -9 22 0  -8.001820916874022 21.99998110820185 0  -7.003691261924406 21.99996415505169 0  -6.005662012647131 21.99995126786302 0  -5.007787231971272 21.99994495506745 0  -4.007882048979127 21.9996260775889 0  -3.007788163730083 21.99930639825521 0  -2.005047497604699 21.99931068802033 0  -1.002446756680195 21.99930839144028 0  8.527508747732803e-05 21.9993001258253 0  1.002617655939484 21.99928581967716 0  2.005219420718017 21.99926472572884 0  3.007961717253222 21.99923540827698 0  4.008055186742609 21.99955992808523 0  5.007959574157477 21.99988503979321 0  6.005791001270942 21.99990784141488 0  7.003777111186229 21.99993591873523 0  8.001863793155989 21.99996720433009 0  9 22 0  -9 24 0  -8.001568702334115 24.00007002742586 0  -7.003179970863065 24.00014470688106 0  -6.004877568590412 24.00022888364448 0  -5.006707572129582 24.00032780165153 0  -4.006789342630699 23.99961877728402 0  -3.006709022963651 23.99890903232204 0  -2.004345717481908 23.99894186923943 0  -1.002102541365129 23.99895710485089 0  8.139913226209369e-05 23.99895553201487 0  1.002265361538097 23.99893720648094 0  2.004508585765592 23.99890145025045 0  3.006871914182354 23.99884684657408 0  4.006949992698543 23.99956166955559 0  5.006866225612971 24.00027683338026 0  6.004996827759763 24.0001917820422 0  7.003259589035113 24.00012050822016 0  8.001608537051931 24.00005808915243 0  9 24 0  -9 26 0  -8.001145244642174 26.00014035581271 0  -7.002321448487614 26.00028727897214 0  -6.003560411905795 26.0004475322636 0  -5.004895464017016 26.0006282825501 0  -4.004955801391822 25.99960837941221 0  -3.004898129597396 25.99858791898622 0  -2.003166663779465 25.9986431505173 0  -1.001522853869379 25.99867274754445 0  7.757387055863234e-05 25.99867764021847 0  1.001677780283417 25.99865799847244 0  2.003320909366297 25.99861323211072 0  3.005051182663358 25.99854198919817 0  4.005105303462415 25.99956661960509 0  5.00504210267652 26.00059140097245 0  6.003671080418016 26.00042061307533 0  7.002395539339263 26.00026968611372 0  8.001182375855404 26.00013166518058 0  9 26 0  -9 28 0  -8.000596824469637 28.00018443468614 0  -7.001209834799145 28.0003765418739 0  -6.001855691904404 28.00058419191686 0  -5.002551794842237 28.00081565673678 0  -4.002584976427334 27.99959587473565 0  -3.002555928122024 27.99837580213594 0  -2.001640163356165 27.99844665000287 0  -1.000771076190447 27.99848688259832 0  7.477577766173892e-05 27.99849755538657 0  1.000920245578026 27.99847894848301 0  2.001788166187644 27.99843056683108 0  3.002701920139275 27.99835113906617 0  4.002726628076826 27.99957367980483 0  5.002690073536499 28.00079628586087 0  6.00196037776638 28.00057002348516 0  7.001280075294088 28.0003672670627 0  8.000632073889125 28
[...]
<PointData  Vectors="f_44-0"> 
<DataArray  type="Float64"  Name="f_44-0"  NumberOfComponents="3" format="ascii">0.0000000000000000e+00 0.0000000000000000e+00 0.0000000000000000e+00  8.9898970818074797e-08 -4.0869750941509508e+00 0.0000000000000000e+00  1.7120785544893390e-07 -4.0479780452100202e+00 0.0000000000000000e+00  3.5868167686600556e-07 -3.6673882383790919e+00 0.0000000000000000e+00  0.0000000000000000e+00 0.0000000000000000e+00 0.0000000000000000e+00  0.0000000000000000e+00 0.0000000000000000e+00 0.0000000000000000e+00  0.0000000000000000e+00 0.0000000000000000e+00 0.0000000000000000e+00  0.0000000000000000e+00 0.0000000000000000e+00 0.0000000000000000e+00  0.0000000000000000e+00 0.0000000000000000e+00 0.0000000000000000e+00  0.0000000000000000e+00 0.0000000000000000e+00 0.0000000000000000e+00  0.0000000000000000e+00 0.0000000000000000e+00 0.0000000000000000e+00  0.0000000000000000e+00 0.0000000000000000e+00 0.0000000000000000e+00  0.0000000000000000e+00 0.0000000000000000e+00 0.0000000000000000e+00  0.0000000000000000e+00 0.0000000000000000e+00 0.0000000000000000e+00  0.0000000000000000e+00 0.0000000000000000e+00 0.0000000000000000e+00  9.2730344940742347e-08 -4.0998597995449098e+00 0.0000000000000000e+00  1.7300809071420830e-07 -4.0599652123670049e+00 0.0000000000000000e+00  3.5958908459889514e-07 -3.6769126125424108e+00 0.0000000000000000e+00  0.0000000000000000e+00 0.0000000000000000e+00 0.0000000000000000e+00  0.0000000000000000e+00 0.0000000000000000e+00 0.0000000000000000e+00  -5.6433428750404541e-03 -3.8204009474048086e+00 0.0000000000000000e+00  3.7649481020747807e-03 -4.0437512024790987e+00 0.0000000000000000e+00  2.6562059627359327e-02 -3.8315173026480740e+00 0.0000000000000000e+00  1.5007712220026089e-03 -4.4854908966357075e-04 0.0000000000000000e+00  1.6407193877675456e-03 -9.7283319100121863e-04 0.0000000000000000e+00  8.9645226569682658e-04 -5.6505087698660941e-04 0.0000000000000000e+00  6.7415479033372159e-04 1.0350529763966838e-04 0.0000000000000000e+00  3.8442651039498869e-04 4.6738730824224986e-04 0.0000000000000000e+00  1.4424041828775804e-04 3.7973957417427885e-04 0.0000000000000000e+00  -1.0258069615403440e-04 -6.1384408346653224e-06 0.0000000000000000e+00  -2.8923497108286817e-04 -5.0747983024777767e-04 0.0000000000000000e+00  -5.6040676029779244e-04 -1.2688930303665559e-03 0.0000000000000000e+00  -9.5451625163169983e-04 -1.4459393776556585e-03 0.0000000000000000e+00  -1.6266329535905848e-03 -2.4669473499873006e-03 0.0000000000000000e+00  -5.8591904736357411e-03 -3.8316026006806432e+00 0.0000000000000000e+00  4.0073300343407966e-03 -4.0556682818216192e+00 0.0000000000000000e+00  2.6667394698343418e-02 -3.8430666422007316e+00 0.0000000000000000e+00  0.0000000000000000e+00 0.0000000000000000e+00 0.0000000000000000e+00  0.0000000000000000e+00 0.0000000000000000e+00 0.0000000000000000e+00  1.2054043583690973e-02 -3.8307218721862997e+00 0.0000000000000000e+00  -4.0929226034420721e-03 -4.0298300902981259e+00 0.0000000000000000e+00  1.1980795540918248e-02 -3.8334794154093790e+00 0.0000000000000000e+00  -1.3852128338432833e-03 -1.9950534110308722e-03 0.0000000000000000e+00  -1.1659693575028994e-04 4.5309943638503873e-05 0.0000000000000000e+00  1.7392177376148753e-04 1.6695318405775927e-03 0.0000000000000000e+00  8.1468093066411646e-05 1.7610678213843118e-03 0.0000000000000000e+00  -3.5313631041350001e-04 7.7814928264991542e-04 0.0000000000000000e+00  -5.0750280709831240e-04 -1.2290410679415524e-04 0.0000000000000000e+00  -3.7543274234005529e-04 -2.6274309922194366e-04 0.0000000000000000e+00  3.4104682864841726e-04 -8.4634692773202325e-04 0.0000000000000000e+00  4.7603305042108988e-04 -1.4953132889836192e-03 0.0000000000000000e+00  1.6646539618458630e-04 -7.8360873519376826e-04 0.0000000000000000e+00  -2.4328157566266224e-04 7.9059442877806859e-05 0.0000000000000000e+00  1.2236018713666646e-02 -3.8417115525776042e+00 0.0000000000000000e+00  -4.1194860048508796e-03 -4.0410031897797483e+00 0.0000000000000000e+00  1.1460362105239045e-02 -3.8445758343609593e+00 0.0000000000000000e+00  0.0000000000000000e+00 0.0000000000000000e+00 0.0000000000000000e+00  0.0000000000000000e+00 0.0000000000000000e+00 0.0000000000000000e+00  1.1611991173963028e-02 -3.8332082447254514e+00 0.0000000000000000e+00  -3.4153602188014081e-03 -4.0309640664919781e+00 0.0000000000000000e+00  1.1735403967889123e-02 -3.8320662773274763e+00 0.0000000000000000e+00  -3.0700400653210064e-03 1.8770952733598504e-03 0.0000000000000000e+00  -1.5713270929753186e-03 4.5735529976069309e-03 0.0000000000000000e+00  -1.4709452369914323e-03 3.7600001466785542e-03 0.0000000000000000e+00  -2.4302469318701926e-03 -7.6461690617922289e-04 0.0000000000000000e+00  -1.5071125595736564e-03 -2.8049150616138562e-03 0.0000000000000000e+00  -1.9140861448150708e-04 -1.4344996090955356e-03 0.0000000000000000e+00  8.2679530400676829e-04 -6.6539529773546545e-04 0.0000000000000000e+00  6.2678487337662170e-04 -4.6558802935508836e-04 0.0000000000000000e+00  1.1745733492863593e-03 -5.0656009236022704e-05 0.0000000000000000e+00  1.9219893636742648e-03 -2.3773881516248683e-03 0.0000000000000000e+00  4.5200274438600825e-04 -4.8360309989075997e-03 0.0000000000000000e+00  1.3804412153887941e-02 -3.8430476527966153e+00 0.0000000000000000e+00  -2.6578631601210045e-03 -4.0404718926031240e+00 0.0000000000000000e+00  1.1115209545583140e-02 -3.8416843334231454e+00 0.0000000000000000e+00  0.0000000000000000e+00 0.0000000000000000e+00 0.0000000000000000e+00  0.0000000000000000e+00 0.0000000000000000e+00 0.0000000000000000e+00  1.0874724468911825e-02 -3.8333635335365690e+00 0.0000000000000000e+00  -4.4871834058853588e-03 -4.0326032143096660e+00 0.0000000000000000e+00  9.8370542593986983e-03 -3.8373116334550970e+00 0.0000000000000000e+00  -1.1681643302669813e-02 -2.3467580536849692e-03 0.0000000000000000e+00  -1.3576182864322075e-02 2.6160606750767184e-03 0.0000000000000000e+00  -4.6201894261394044e-03 -5.0021006264072201e-03 0.0000000000000000e+00  -4.3411453213372123e-03 -9.8485602638281686e-03 0.0000000000000000e+00  5.0386557891599017e-04 -5.2938131829137593e-03 0.0000000000000000e+00  2.0057082920669129e-03 -4.5149260163939988e-03 0.0000000000000000e+00  4.7863446201016572e-03 -9.1114599057967750e-03 0.0000000000000000e+00  4.5012083758864778e-03 -1.5567589959034054e-03 0.0000000000000000e+00  1.6921457464829773e-02 -5.8206726564704568e-03 0.0000000000000000e+00  1.8252263883001798e-02 -1.4715320631904444e-02 0.0000000000000000e+00  1.1407428660044244e-02 -1.3627177223778585e-02 0.0000000000000000e+00  1.5027063082588466e-02 -3.8414847435235293e+00 0.0000000000000000e+00  -1.0654521421323401e-03 -4.0382512304505731e+00 0.0000000000000000e+00  1.1813585732204779e-02 -3.8389982934977036e+00 0.0000000000000000e+00  0.0000000000000000e+00 0.0000000000000000e+00 0.0000000000000000e+00  0.0000000000000000e+00 0.0000000000000000e+00 0.0000000000000000e+00  9.3667609592033695e-03 -3.8291626625014508e+00 0.0000000000000000e+00  -9.6559176179398867e-03 -4.0271939923389883e+00 0.0000000000000000e+00  -3.0105623490265698e-03 -3.8282076902721602e+00 0.0000000000000000e+00  -5.2007631902316422e-02 1.8697191773539977e-02 0.0000000000000000e+00  -4.0201591702093357e-02 1.2843576159315400e-02 0.0000000000000000e+00  -2.1795251252397854e-02 7.9438002903948739e-03 0.0000000000000000e+00  1.4075717664921573e-03 -1.7982580048411353e-02 0.0000000000000000e+00  1.6610371807091958e-03 -7.1138707684625024e-03 0.0000000000000000e+00  4.6308710908408660e-03 -5.1081995646319054e-03 0.0000000000000000e+00  7.2725530150991122e-03 -5.4552181887942749e-03 0.0000000000000000e+00  6.7051850411726857e-03 -6.0630709492735992e-03 0.0000000000000000e+00  3.4613696274748570e-02 -9.8258034967222858e-03 0.0000000000000000e+00  4.2288161233393975e-02 -1.8484625518912265e-02 0.0000000000000000e+00  4.4139049380407885e-02 -2.2305773577684505e-02 0.0000000000000000e+00  2.2070848179101703e-02 -3.8377313300873466e+00 0.0000000000000000e+00  8.3348173020593680e-04 -4.0339178544636782e+00 0.0000000000000000e+00  1.2318660084805434e-02 -3.8347787597802068e+00 0.0000000000000000e+00  0.0000000000000000e+00 0.0000000000000000e+00 0.0000000000000000e+00  0.0000000000000000e+00 0.0000000000000000e+00 0.0000000000000000e+00  9.1406757521095179e-03 -3.8226276944285158e+00 0.0000000000000000e+00  -1.0063543806446178e-02 -4.0203228400400031e+00 0.0000000000000000e+00  8.6958584649579770e-04 -3.8232280174586601e+00 0.0000000000000000e+00  -2.8537685358530508e-02 1.0987036178970401e-02 0.0000000000000000e+00  -3.7578113877009059e-02 1.4792968482783192e-02 0.0000000000000000e+00  -5.0778223600228628e-02 3.0025088498715269e-02 0.0000000000000000e+00  -1.9703474136852289e-02 -2.5539477440583623e-02 0.0000000000000000e+00  -6.8629095766298701e-03 -2.5863902646486719e-02 0.0000000000000000e+00  2.5475883377887388e-03 -2.3888611180015049e-02 0.0000000000000000e+00  9.2209404011323586e-03 -2.3937585759588952e-02 0.0000000000000000e+00  9.5406500625825879e-03 -2.5721330794705101e-02 0.0000000000000000e+00  2.0383174341199239e-02 -1.4162703603162560e-02 0.0000000000000000e+00  3.2733222996294657e-02 -1.2276378667070764e-02 0.0000000000000000e+00  4.3034407721020011e-02 -3.8307747030079269e-03 0.0000000000000000e+00  2.4741609903787504e-02 -3.8337007745852119e+00 0.0000000000000000e+00  2.6620036349221096e-04 -4.0287389914376606e+00 0.0000000000000000e+00  1.2055888200039049e-02 -3.8294898795389529e+00 0.0000000000000000e+00  0.0000000000000000e+00 0.0000000000000000e+00 0.0000000000000000e+00  0.0000000000000000e+00 0.0000000000000000e+00 0.0000000000000000e+00  9.1839448267748008e-03 -3.8145980486459985e+00 0.0000000000000000e+00  -1.0423455411373262e-02 -4.0124253799709901e+00 0.0000000000000000e+00  3.2539666836101192e-04 -3.8151742098084642e+00 0.0000000000000000e+00  -2.4129211637783071e-03 -1.3199455013678833e-03 0.0000000000000000e+00  -8.1624117580504970e-03 -1.5472270422402352e-03 0.0000000000000000e+00  -1.1271484316770731e-02 -9.0834136856955214e-03 0.0000000000000000e+00  -7.4541073357602518e-03 -3.7897030824958634e-02 0.0000000000000000e+00  -2.5636615244567606e-03 -3.8401626418171651e-02 0.0000000000000000e+00  2.4614066877744036e-03 -3.7509855256983943e-02 0.0000000000000000e+00  7.7460173150341845e-03 -3.7092926313242680e-02 0.0000000000000000e+00  1.1652088473032157e-02 -3.5459261405762110e-02 0.0000000000000000e+00  4.0059385207612923e-03 5.1321337233245360e-04 0.0000000000000000e+00  9.5799884102486139e-03 6.6588309648850635e-04 0.0000000000000000e+00  1.2629054959279467e-02 -1.9385006304971869e-03 0.0000000000000000e+00  2.0831209422192326e-02 -3.8266592697243733e+00 0.0000000000000000e+00  8.6129141564257996e-04 -4.0234506403789476e+00 0.0000000000000000e+00  1.2027714234959071e-02 -3.8233561857753608e+00 0.0000000000000000e+00  0.0000000000000000e+00 0.0000000000000000e+00 0.0000000000000000e+00  0.0000000000000000e+00 0.0000000000000000e+00 0.0000000000000000e+00  9.0842595693107400e-03 -3.8048903473694766e+00 0.0000000000000000e+00  -1.1187710857474704e-02 -4.0030979018931783e+00 0.0000000000000000e+00  -2.1597641354803706e-04 -3.8055241654952101e+00 0.0000000000000000e+00  1.0579164063009393e-02 -1.1826641457422245e-02 0.0000000000000000e+00  6.0476308076117926e-03 -1.1847396624237233e-02 0.0000000000000000e+00  1.8125354857361851e-03 -1.1300509981898594e-02 0.0000000000000000e+00  -9.1425463832920106e-03 -4.7526387140820026e-02 0.0000000000000000e+00  -3.7526709067357512e-03 -4.9093227349371396e-02 0.0000000000000000e+00  2.5269456444795518e-03 -4.9636889235861362e-02 0.0000000000000000e+00  8.7248617519470779e-03 -4.9394892567932079e-02 0.0000000000000000e+00  1.2392229579868496e-02 -4.7778329993925180e-02 0.0000000000000000e+00  -9.5663049574213049e-03 9.3675787807891240e-03 0.0000000000000000e+00  -5.5445792587650528e-03 8.3515706073595229e-03 0.0000000000000000e+00  -1.5620803254129277e-03 9.1189360099341362e-03 0.0000000000000000e+00  2.0048716513877077e-02 -3.8188111649307070e+00 0.0000000000000000e+00  1.7350392983091593e-03 -4.0162209337670056e+00 0.0000000000000000e+00  1.2349830589398102e-02 -3.8154200466021657e+00 0.0000000000000000e+00  0.0000000000000000e+00 0.0000000000000000e+00 0.0000000000000000e+00  0.0000000000000000e+00 0.0000000000000000e+00 0.0000000000000000e+00  8.8222233882449159e-03 -3.7933335063534530e+00 0.0000000000000000e+00  -1.2164886854192014e-02 -3.9920524484385340e+00 0.0000000000000000e+00  -1.5832074069274326e-03 -3.7935001112549620e+00 0.0000000000000000e+00  1.6814144037114457e-02 -1.7406458293604956e-02 0.0000000000000000e+00  1.4209135431319197e-02 -1.6753471134030255e-02 0.0000000000000000e+00  1.2746535166573978e-02 -1.6937534703402903e-02 0.0000000000000000e+00  -1.0012831565721509e-02 -6.3799859882629678e-02 0.0000000000000000e+00  -5.0601561461732503e-03 -6.3117010873239607e-02 0.0000000000000000e+00  2.0888859334711241e-03 -6.3549944446868498e-02 0.0000000000000000e+00  9.0616298983957257e-03 -6.3489923722990602e-02 0.0000000000000000e+00  1.3081499340569253e-02 -6.3125111570047895e-02 0.0000000000000000e+00  -1.5258330887868727e-02 1.4720424701654949e-02 0.0000000000000000e+00  -1.2642740167212492e-02 1.4033466484955757e-02 0.0000000000000000e+00  -1.1095196294994836e-02 1.4016527095327767e-02 0.0000000000000000e+00  2.1345557105380282e-02 -3.8071406664137686e+00 0.0000000000000000e+00  3.5965759858566692e-03 -4.0062589369394423e+00 0.0000000000000000e+00  1.3061514950019618e-02 -3.8047614388582178e+00 0.0000000000000000e+00  0.0000000000000000e+00 0.0000000000000000e+00 0.0000000000000000e+00  0.0000000000000000e+00 0.0000000000000000e+00 0.0000000000000000e+00  8.5576563106006080e-03 -3.7803088498152571e+00 0.0000000000000000e+00  -1.2877063969440198e-02 -3.9795949341374737e+00 0.0000000000000000e+00  -2.6323360313787133e-03 -3.7795597412477795e+00 0.0000000000000000e+00  1.8487585730423986e-02 -1.9262350697818065e-02 0.0000000000000000e+00  1.7513726694912208e-02 -1.9122046023907928e-02 0.0000000000000000e+00  1.7453879057233310e-02 -1.9644832186579881e-02 0.0000000000000000e+00  -1.0678639716829875e-02 -8.1443934105904600e-02 0.0000000000000000e+00  -5.9757846351549985e-03 -7.8817950978947976e-02 0.0000000000000000e+00  1.5462942741446622e-03 -7.9058562356695394e-02 0.0000000000000000e+00  8.9579727713979783e-03 -7.9138331149185143e-02 0.0000000000000000e+00  1.3526051766489968e-02 -8.0423733781137680e-02 0.0000000000000000e+00  -1.6319372717737552e-02 1.6474218241515293e-02 0.0000000000000000e+00  -1.5395501996879652e-02 1.6097335490085740e-02 0.0000000000000000e+00  -1.5467438711938238e-02 1.6309342191290106e-02 0.0000000000000000e+00  2.2448662276780267e-02 -3.7923953684797476e+00 0.0000000000000000e+00  5.0006637821440724e-03 -3.9934497826847073e+00 0.0000000000000000e+00  1.3679882567225592e-02 -3.7915112627641880e+00 0.0000000000000000e+00  7.8527003393714624e-11 -7.4640843686718096e-11 0.0000000000000000e+00  0.0000000000000000e+00 0.0000000000000000e+00 0.0000000000000000e+00  8.4560840002982605e-03 -3.7667736409505990e+00 0.0000000000000000e+00  -1.2895625647987720e-02 -3.9666552798443995e+00 0.0000000000000000e+00  -2.6390507423772703e-03 -3.7649140636096923e+00 0.0000000000000000e+00  1.7038338027179505e-02 -1.8323138032182978e-02 0.0000000000000000e+00  1.7407390277746772e-02 -1.8824428290815376e-02 0.0000000000000000e+00  1.8665137381464216e-02 -1.9826487820449951e-02 0.0000000000000000e+00  -1.0402207357283175e-02 -9.9375384641939415e-02 0.0000000000000000e+00  -6.1996944422755594e-03 -9.4798608993194769e-02 0.0000000000000000e+00  1.0580080241073572e-03 -9.4808869278020860e-02 0.0000000000000000e+00  8.2541883762596111e-03 -9.5028390188534942e-02 0.0000000000000000e+00  1.3027947293154178e-02 -9.8200633113190647e-02 0.0000000000000000e+00  -1.4381339673675463e-02 1.5345807199314115e-02 0.0000000000000000e+00  -1.4814148905618498e-02 1.5649827857608406e-02 0.0000000000000000e+00  -1.6130551626999681e-02 1.6471656241024060e-02 0.0000000000000000e+00  2.3020250581594969e-02 -3.7761941400136783e+00 0.0000000000000000e+00  5.6706389990100366e-03 -3.9790388692793228e+00 0.0000000000000000e+00  1.4049358124180898e-02 -3.7767832799164518e+00 0.0000000000000000e+00  0.0000000000000000e+00 0.0000000000000000e+00 0.0000000000000000e+00  0.0000000000000000e+00 0.0000000000000000e+00 0.0000000000000000e+00  8.6125256982691207e-03 -3.7540209675099518e+00 0.0000000000000000e+00  -1.2027449054281209e-02 -3.9544885062728308e+00 0.0000000000000000e+00  -1.3014381743642648e-03 -3.7510821226205930e+00 0.0000000000000000e+00  1.3602357043077875e-02 -1.5215035199748388e-02 0.0000000000000000e+00  1.5085441770150938e-02 -1.6407913008364184e-02 0.0000000000000000e+00  1.7298890809172900e-02 -1.7984097446038291e-02 0.0000000000000000e+00  -8.9243903316317159e-03 -1.1575159224357774e-01 0.0000000000000000e+00  -5.5811171940728394e-03 -1.0948357505864556e-01 0.0000000000000000e+00  6.7417473822861998e-04 -1.0927164940315620e-01 0.0000000000000000e+00  6.9147282889765720e-03 -1.0962844227840009e-01 0.0000000000000000e+00  1.1395594885086634e-02 -1.1464333946094993e-01 0.0000000000000000e+00  -1.0549197865877680e-02 1.2086407587693705e-02 0.0000000000000000e+00  -1.2089924022925797e-02 1.3128431575600483e-02 0.0000000000000000e+00  -1.4367307804981765e-02 1.4548288883966313e-02 0.0000000000000000e+00  2.2578818516875803e-02 -3.7601380204203254e+00 0.0000000000000000e+00  5.4116888619792376e-03 -3.9645044629681894e+00 0.0000000000000000e+00  1.4091856558883509e-02 -3.7620670555891147e+00 0.0000000000000000e+00  0.0000000000000000e+00 0.0000000000000000e+00 0.0000000000000000e+00  0.0000000000000000e+00 0.0000000000000000e+00 0.0000000000000000e+00  9.0524894780524695e-03 -3.7434050084107282e+00 0.0000000000000000e+00  -1.0274723464900921e-02 -3.9444005208996278e+00 0.0000000000000000e+00  1.3788628428433938e-03 -3.7395857708324929e+00 0.0000000000000000e+00  9.0116549742410169e-03 -1.0602324412781998e-02 0.0000000000000000e+00  1.1343058411975086e-02 -1.2400415616489453e-02 0.0000000000000000e+00  1.4190507884422787e-02 -1.4454403281650137e-02 0.0000000000000000e+00  -6.3339678259533598e-03 -1.2883358008880255e-01 0.0000000000000000e+00  -4.1931788263376932e-03 -1.2131863550193885e-01 0.0000000000000000e+00  4.0130188764681408e-04 -1.2093156976046487e-01 0.0000000000000000e+00  5.0118933711160250e-03 -1.2140314878079300e-01 0.0000000000000000e+00  8.6833361059821743e-03 -1.2798233794442929e-01 0.0000000000000000e+00  -5.6618999583105565e-03 7.3513798267322268e-03 0.0000000000000000e+00  -8.0469778160004255e-03 9.0447507886865456e-03 0.0000000000000000e+00  -1.0954499901110625e-02 1.0991431832687477e-02 0.0000000000000000e+00  2.1000916114694956e-02 -3.7459323561217945e+00 0.0000000000000000e+00  4.1943465575109036e-03 -3.9513719089804664e+00 0.0000000000000000e+00  1.3789485375013804e-02 -3.7489088876574868e+00 0.0000000000000000e+00  0.0000000000000000e+00 0.0000000000000000e+00 0.0000000000000000e+00  0.0000000000000000e+00 0.0000000000000000e+00 0.0000000000000000e+00  9.7477128249502647e-03 -3.7361150155391227e+00 0.0000000000000000e+00  -7.7865373137016693e-03 -3.9375301568419983e+00 0.0000000000000000e+00  5.1686862922010433e-03 -3.7317288475552655e+00 0.0000000000000000e+00  3.8557552250717254e-03 -5.1061777817529297e-03 0.0000000000000000e+00  6.7597763978843785e-03 -7.3211340532489937e-03 0.0000000000000000e+00  9.9268802269610480e-03 -9.6652438029679946e-03 0.0000000000000000e+00  -2.8922778133593304e-03 -1.3723378675386758e-01 0.0000000000000000e+00  -2.2052080865154868e-03 -1.2903538315681012e-01 0.0000000000000000e+00  2.3743536229212651e-04 -1.2853433208461207e-01 0.0000000000000000e+00  2.7089837240114605e-03 -1.2907812569504240e-01 0.0000000000000000e+00  5.1410310229185662e-03 -1.3676337081764361e-01 0.0000000000000000e+00  -3.2108863696529754e-04 1.7654295941235149e-03 0.0000000000000000e+00  -3.2721413591759278e-03 3.9272076850361600e-03 0.0000000000000000e