<?xml version="1.0"?>
<VTKFile type="UnstructuredGrid"  version="0.1"  >
<UnstructuredGrid>
<Piece  NumberOfPoints="589" NumberOfCells="1080">
<Points>
<DataArray  type="Float64"  NumberOfComponents="3"  format="ascii">-9 0 0  -8 0 0  -7 0 0  -6 0 0  -5 0 0  -4 0 0  -3 0 0  -2 0 0  -1 0 0  0 0 0  1 0 0  2 0 0  3 0 0  4 0 0  5 0 0  6 0 0  7 0 0  8 0 0  9 0 0  -9 2 0  -8.000006809139158 1.999989259313241 0  -7.000014300680402 1.999979885122888 0  -6.000024111984451 1.999972992373494 0  -5.000040012288409 1.999969086247221 0  -4.000023190538132 1.999976740910187 0  -3.00000592226287 1.999984240354454 0  -1.999997607233486 1.999991378985186 0  -0.9999964526773927 1.999997017899906 0  2.432693769526469e-07 1.999999456396676 0  0.9999966750154412 1.999997637385545 0  1.999996938400491 1.999991961044018 0  3.000003802428011 1.999984988231929 0  4.000018172530887 1.999977451428839 0  5.000039137643301 1.999974105550635 0  6.000023795981154 1.999975287979449 0  7.000014234638058 1.999980978224724 0  8.00000681976976 1.999989713679553 0  9 2 0  -9.000000000004983 4 0  -8.00001088853505 3.999973053309062 0  -7.000019322364943 3.999949844974863 0  -6.000023867906251 3.99993403852521 0  -5.000024832775516 3.999929129315581 0  -3.999999991248536 3.999932633360335 0  -2.999983402832586 3.999954081946027 0  -1.99997928883158 3.999982087948425 0  -0.9999860023502478 4.000004625915071 0  1.408293651892551e-06 4.000013611140236 0  0.9999885983544993 4.00000620106686 0  1.999981155295625 3.999986510146454 0  2.999984691171468 3.999959845773001 0  4.000000942774403 3.999932853804735 0  5.000025829867655 3.999923239386277 0  6.000024470517938 3.99993254519601 0  7.000019883163964 3.999949776405598 0  8.000011258823344 3.999973224714652 0  9 4 0  -9 6 0  -8.000024785903177 5.999941897246511 0  -7.000039897139987 5.999890200422421 0  -6.000037946462 5.999851498773859 0  -5.000016802889254 5.999832123962948 0  -3.999967840972408 5.999863923761385 0  -2.999945643835549 5.999930747341405 0  -1.999954582995475 6.000000889470805 0  -0.9999767689790721 6.000039942664544 0  6.775230840733186e-07 6.000047669230757 0  0.9999802884831693 6.00003469996004 0  1.999964679287599 5.999998993908452 0  2.999958803003348 5.99993866246184 0  3.999970565813982 5.999875930581152 0  5.00001300694255 5.999844370572346 0  6.000038057026891 5.999858103840257 0  7.000041678640438 5.999893709684291 0  8.00002623435447 5.999943431172774 0  9 6 0  -9 8 0  -8.000077374055925 7.999885135316211 0  -7.000128713517862 7.999778592120888 0  -6.000128792829631 7.999691668539771 0  -5.000055997299179 7.999642978349675 0  -3.999961031217927 7.999790668953588 0  -2.999978205076502 7.999964409179309 0  -2.000013631894877 8.000049348808536 0  -1.000016681890411 8.000059360564737 0  4.382947811491849e-06 8.000062341325014 0  1.00001991713846 8.000070973334081 0  2.000012878491266 8.000034711268064 0  2.999970708649307 7.99997309915782 0  3.999956216193678 7.999820862208225 0  5.000050721293388 7.999649076296708 0  6.000137345051208 7.999696196195496 0  7.000139723328798 7.999781198837624 0  8.000084357749126 7.999886262261874 0  9 8 0  -9 10 0  -8.000234021235615 9.999795151393641 0  -7.000422490091775 9.999588604199078 0  -6.000511056347155 9.99937906853201 0  -5.000423999549814 9.99916622703438 0  -4.000273506966426 9.999643049001838 0  -3.00029751884619 10.00005324611571 0  -2.000236336499449 9.999983574648855 0  -1.000104215718538 9.999961211962439 0  -6.546380875299246e-06 9.999955732936034 0  1.00009063007051 9.999956035028161 0  2.000220535357039 9.99995298583026 0  3.000334127345035 10.00010274282116 0  4.000318897885009 9.999705330010084 0  5.000493222940218 9.999180943509518 0  6.000573439042127 9.99938289389053 0  7.000468631954743 9.999588521153001 0  8.000258376666318 9.999794444495478 0  9 10 0  -9 12 0  -8.000572510280213 11.99971209834939 0  -7.001115275976324 11.99941080061416 0  -6.001594647356005 11.99908009331084 0  -5.001968818573411 11.99869766380984 0  -4.001891739608337 11.99956670917629 0  -3.001960438961857 12.00042693986768 0  -2.001333718585084 12.00032489504426 0  -1.000638210240524 12.00027071496749 0  8.280039842146519e-05 12.00026213113561 0  1.000809750734237 12.00030112558222 0  2.001525767531895 12.00039847122709 0  3.002197365534235 12.0005809394808 0  4.002120789147393 11.99962488815675 0  5.002172291724943 11.99866076566192 0  6.001748752984606 11.99905520015771 0  7.00121889605002 11.99939485314927 0  8.000624613284096 11.99970421831706 0  9 12 0  -9 14 0  -8.001029219488244 13.99968278389709 0  -7.002060424179884 13.99935090245492 0  -6.003096958939686 13.99898839735964 0  -5.004145654530971 13.99857677283857 0  -4.004156430583317 13.99959156732903 0  -3.004161834349993 14.00061906748237 0  -2.002707686681061 14.00047504118162 0  -1.001274821649307 14.00039808561037 0  0.0001486124061788979 14.00037845226992 0  1.001573787782366 14.00041310593071 0  2.00301088137506 14.00050389178661 0  3.004467582371598 14.00065568845966 0  4.004477581292512 13.9995873988509 0  5.004485699458959 13.99852546535275 0  6.003347419599518 13.99894726190378 0  7.002225737312195 13.99932271371371 0  8.001111468649075 13.99966853316077 0  9 14 0  -9 16 0  -8.001476954565256 15.99971223343455 0  -7.002982547831063 15.99941371671498 0  -6.004547880684425 15.99909350737728 0  -5.006209034681144 15.99874044916217 0  -4.006268542805388 15.99960370741836 0  -3.006211513662655 16.00046224049081 0  -2.003999224848083 16.00035774892327 0  -1.001874869179974 16.00029685010297 0  0.0002075513997091506 16.00027824529651 0  1.002291481778799 16.00030117179297 0  2.004420325985189 16.00036588465859 0  3.006640210683813 16.00047343655187 0  4.006702966046936 15.99955962471064 0  5.006648420503749 15.99864498470842 0  6.004876437785475 15.99902513816861 0  7.003200945359449 15.99936940838293 0  8.001585940172232 15.99969041948652 0  9 16 0  -9 18 0  -8.001809023754554 17.99978471076404 0  -7.00366378044629 17.99956341019795 0  -6.005612368904704 17.99933018981625 0  -5.007707585844668 17.99907936998217 0  -4.007797649992923 17.99960597605189 0  -3.007710018173663 18.00013174247847 0  -2.004942508943439 18.00006678285022 0  -1.002308784465847 18.00002716809801 0  0.0002604324452225621 18.0000126359811 0  1.002831070077827 18.00002280141562 0  2.005468965036091 18.00005720349108 0  3.008243086955813 18.00011517201969 0  4.008335490113352 17.99953880489124 0  5.008247778098005 17.99896392506807 0  6.006015754713308 17.99924683110947 0  7.00393184964203 17.99950931454952 0  8.001942801120144 17.99975809342753 0  9 18 0  -9 20 0  -8.001957151481646 19.99988121750274 0  -7.003967680921726 19.99976081176873 0  -6.006087005270539 19.99963733371742 0  -5.008374620447547 19.99950967596076 0  -4.008477508031623 19.99960535485786 0  -3.00837510137966 19.99970010275138 0  -2.005354606524529 19.99967495944014 0  -1.002486530165372 19.99965771354521 0  0.0003075894321042407 19.99964877574717 0  1.003103389361748 19.99964800805908 0  2.005976494658583 19.99965474422276 0  3.009005345373648 19.9996677406774 0  4.009110215320908 19.99952838151136 0  5.009007044660996 19.99939000080267 0  6.00655873535649 19.99955029846288 0  7.004280942729811 19.9997040808058 0  8.002113417018665 19.99985323925889 0  8.999999999984537 19.99999999999532 0  -9 22 0  -8.001890828122068 21.99998420021601 0  -7.003834397924834 21.99997050239869 0  -6.00588511792381 21.99996120701115 0  -5.008100714044352 21.99995901637574 0  -4.008201465559803 21.99960062064192 0  -3.008100758542202 21.99924118894079 0  -2.00516106083845 21.99925172399359 0  -1.002370337056231 21.99925522114607 0  0.0003480456605018512 21.9992524308276 0  1.003068415453063 21.99924338222615 0  2.005865113665151 21.99922739701867 0  3.008814816487161 21.99920307590061 0  4.008916323738003 21.99952501852575 0  5.008812799628542 21.99984745093266 0  6.006415930193131 21.99987981629694 0  7.004186727490204 21.99991732302661 0  8.00206652714389 21.99995793469017 0  9 22 0  -9 24 0  -8.001612561823702 24.00007877935317 0  -7.003270450414425 24.00016258817677 0  -6.005020290764945 24.00025666214875 0  -5.006911199555506 24.0003666652623 0  -4.006997949469978 23.99959196342641 0  -3.006911948358374 23.9988163025027 0  -2.004375553542865 23.99885648525219 0  -1.001966588467703 23.99887773367885 0  0.0003806615260845895 23.99888097385814 0  1.002730164555408 23.9988663480508 0  2.005145913594407 23.99883321787923 0  3.007693701193829 23.99878015884543 0  4.00777913635315 23.9995268841546 0  5.007687747005301 24.0002738152472 0  6.005598895735779 24.00018874030597 0  7.003654380373232 24.00011812299062 0  8.001803979116575 24.00005679191949 0  9 24 0  -9 26 0  -8.001151860932801 26.00015326440512 0  -7.002336500055324 26.00031362976125 0  -6.003587613298625 26.00048840873203 0  -5.004940549391259 26.00068535287828 0  -4.005004216993462 25.99957990319979 0  -3.004942758111816 25.99847367351738 0  -2.003084128752373 25.99853662709155 0  -1.001317702343884 25.99857192269045 0  0.0004044322319017128 25.99858062126031 0  1.002129004428937 25.99856296369218 0  2.003902771657076 25.99851837196254 0  3.005773730064745 25.99844544674709 0  4.005833616143152 25.99953225785784 0  5.005763941132368 26.00061906310309 0  6.004200995251512 26.00043982568872 0  7.002743443356747 26.00028178049196 0  8.001354734029329 26.00013750126038 0  9 26 0  -9 28 0  -8.00055873372041 28.00019937204429 0  -7.001134266424971 28.00040703689393 0  -6.001743917661887 28.00063150389305 0  -5.002405798153994 28.00088172143565 0  -4.002440153385462 27.99956551884579 0  -3.002409707787207 27.9982488388015 0  -2.001427628136702 27.99832702004483 0  -1.000493340912554 27.99837211538377 0  0.0004186188232085677 27.99838530318085 0  1.001333106314932 27.99836691799205 0  2.002275002672054 27.99831645070455 0  3.003269851646802 27.99823254697041 0  4.003298084620028 27.99953992155767 0  5.00325689212416 28.0008472009168 0  6.00237791059774 28.0006061587575 0  7.001554873949301 28.00039039907658 0  8
[...]
<PointData  Vectors="f_44-0"> 
<DataArray  type="Float64"  Name="f_44-0"  NumberOfComponents="3" format="ascii">0.0000000000000000e+00 0.0000000000000000e+00 0.0000000000000000e+00  6.1628001493638630e-07 -1.0774015921315717e+01 0.0000000000000000e+00  5.1689037623605866e-07 -1.0931318077875709e+01 0.0000000000000000e+00  7.4989104014502360e-07 -1.0393276578900188e+01 0.0000000000000000e+00  0.0000000000000000e+00 0.0000000000000000e+00 0.0000000000000000e+00  0.0000000000000000e+00 0.0000000000000000e+00 0.0000000000000000e+00  0.0000000000000000e+00 0.0000000000000000e+00 0.0000000000000000e+00  0.0000000000000000e+00 0.0000000000000000e+00 0.0000000000000000e+00  0.0000000000000000e+00 0.0000000000000000e+00 0.0000000000000000e+00  0.0000000000000000e+00 0.0000000000000000e+00 0.0000000000000000e+00  0.0000000000000000e+00 0.0000000000000000e+00 0.0000000000000000e+00  0.0000000000000000e+00 0.0000000000000000e+00 0.0000000000000000e+00  0.0000000000000000e+00 0.0000000000000000e+00 0.0000000000000000e+00  0.0000000000000000e+00 0.0000000000000000e+00 0.0000000000000000e+00  0.0000000000000000e+00 0.0000000000000000e+00 0.0000000000000000e+00  6.2937457413423053e-07 -1.0785973035020222e+01 0.0000000000000000e+00  5.2432561902009721e-07 -1.0943809376814899e+01 0.0000000000000000e+00  7.5864553238161357e-07 -1.0405280494089205e+01 0.0000000000000000e+00  0.0000000000000000e+00 0.0000000000000000e+00 0.0000000000000000e+00  0.0000000000000000e+00 0.0000000000000000e+00 0.0000000000000000e+00  -5.7084924045633992e-02 -1.0539086553297896e+01 0.0000000000000000e+00  -9.6040710679441161e-03 -1.0951552810582946e+01 0.0000000000000000e+00  1.9300765148350090e-02 -1.0534026789669504e+01 0.0000000000000000e+00  1.9334328610076691e-03 -1.6518928069136131e-04 0.0000000000000000e+00  1.9251728143182135e-03 -7.5367288557394072e-04 0.0000000000000000e+00  1.0194150092647839e-03 -3.9613077847713650e-04 0.0000000000000000e+00  7.1670994933282107e-04 2.2463141449603614e-04 0.0000000000000000e+00  4.1169410614731619e-04 5.4867001991380088e-04 0.0000000000000000e+00  1.9714834298560285e-04 4.2727042744249957e-04 0.0000000000000000e+00  -2.4148302023489202e-05 2.9508716294937057e-05 0.0000000000000000e+00  -2.1884240946141566e-04 -4.5804596140537141e-04 0.0000000000000000e+00  -5.6420845791919970e-04 -1.2154160833231882e-03 0.0000000000000000e+00  -1.1114411179600795e-03 -1.3592102420677558e-03 0.0000000000000000e+00  -1.9987395766035703e-03 -2.4753274653872294e-03 0.0000000000000000e+00  -5.8712883142020354e-02 -1.0552112123143742e+01 0.0000000000000000e+00  -1.0014254091196859e-02 -1.0964672706289740e+01 0.0000000000000000e+00  1.8326972866968404e-02 -1.0547377697018730e+01 0.0000000000000000e+00  0.0000000000000000e+00 0.0000000000000000e+00 0.0000000000000000e+00  0.0000000000000000e+00 0.0000000000000000e+00 0.0000000000000000e+00  -1.1896780150283510e-03 -1.0532511687471843e+01 0.0000000000000000e+00  -2.3361775269565233e-02 -1.0923175936111555e+01 0.0000000000000000e+00  1.2456188748164469e-03 -1.0536364007054225e+01 0.0000000000000000e+00  -1.1155596306823639e-03 -1.3930995132591963e-03 0.0000000000000000e+00  -2.9527484153765453e-05 6.7705393895383661e-04 0.0000000000000000e+00  1.1396345094208869e-04 2.1563223644306419e-03 0.0000000000000000e+00  -3.1835300979952437e-05 2.0125900725691970e-03 0.0000000000000000e+00  -4.3078186932929879e-04 7.9581608636777933e-04 0.0000000000000000e+00  -4.8930049514427153e-04 -2.2454336030219583e-04 0.0000000000000000e+00  -2.5000000192164633e-04 -3.0635947739976514e-04 0.0000000000000000e+00  5.6008140404239268e-04 -7.6076714154745071e-04 0.0000000000000000e+00  6.6424938098241543e-04 -1.2285420084284279e-03 0.0000000000000000e+00  1.8846474245911622e-04 -2.4738965318158059e-04 0.0000000000000000e+00  -4.5797232266813636e-04 7.5903316919276808e-04 0.0000000000000000e+00  -2.2499935732034704e-03 -1.0543883968490407e+01 0.0000000000000000e+00  -2.4441146861941519e-02 -1.0933300604533351e+01 0.0000000000000000e+00  -6.5559805709162512e-04 -1.0546429024713264e+01 0.0000000000000000e+00  0.0000000000000000e+00 0.0000000000000000e+00 0.0000000000000000e+00  0.0000000000000000e+00 0.0000000000000000e+00 0.0000000000000000e+00  9.7826712558183992e-03 -1.0533480493298411e+01 0.0000000000000000e+00  -4.4117944002817081e-03 -1.0910088930676126e+01 0.0000000000000000e+00  4.0681897611960340e-03 -1.0520204928106233e+01 0.0000000000000000e+00  -2.9256191210985140e-03 3.4729225755658704e-03 0.0000000000000000e+00  -1.8142154586014733e-03 5.9782093499082204e-03 0.0000000000000000e+00  -1.9086139547942738e-03 4.5457962069739462e-03 0.0000000000000000e+00  -2.8195270084237192e-03 -7.5611718774402828e-04 0.0000000000000000e+00  -1.6678628610905242e-03 -3.2250435634415390e-03 0.0000000000000000e+00  -1.1585961724664563e-04 -1.8530845363939976e-03 0.0000000000000000e+00  1.1158952042802882e-03 -9.5005444448280818e-04 0.0000000000000000e+00  1.0341636957217333e-03 -4.4490677115635780e-04 0.0000000000000000e+00  1.6586407206166001e-03 5.0858046931997211e-04 0.0000000000000000e+00  2.3161839921444815e-03 -1.4094506863645321e-03 0.0000000000000000e+00  3.8476858709530652e-04 -3.7510677102621831e-03 0.0000000000000000e+00  1.0683650758692759e-02 -1.0543718437531229e+01 0.0000000000000000e+00  -7.3276676307219854e-03 -1.0923804215322290e+01 0.0000000000000000e+00  -9.9039748109231145e-04 -1.0538296932568647e+01 0.0000000000000000e+00  0.0000000000000000e+00 0.0000000000000000e+00 0.0000000000000000e+00  0.0000000000000000e+00 0.0000000000000000e+00 0.0000000000000000e+00  1.1377970801377060e-02 -1.0539165641754519e+01 0.0000000000000000e+00  1.2832627016445741e-03 -1.0920978858914069e+01 0.0000000000000000e+00  6.9829636758956381e-03 -1.0541383159786989e+01 0.0000000000000000e+00  -1.1525419247233453e-02 8.2262337578300332e-04 0.0000000000000000e+00  -1.4301727770086162e-02 4.6192866394797081e-03 0.0000000000000000e+00  -4.9004677180874874e-03 -4.8056382831875343e-03 0.0000000000000000e+00  -4.2749377437134705e-03 -1.0577060938749761e-02 0.0000000000000000e+00  7.6999174507984118e-04 -5.9885664549641981e-03 0.0000000000000000e+00  2.1497938934551923e-03 -5.2244422011702542e-03 0.0000000000000000e+00  4.9495983799616077e-03 -1.0190888675726813e-02 0.0000000000000000e+00  4.6471215475744117e-03 -1.8531923750860599e-03 0.0000000000000000e+00  1.8114652025424300e-02 -5.8645237360430797e-03 0.0000000000000000e+00  1.9658061814879901e-02 -1.4003758726009787e-02 0.0000000000000000e+00  1.1605678964871429e-02 -1.1384929274355670e-02 0.0000000000000000e+00  9.6476206672300429e-03 -1.0544793055803193e+01 0.0000000000000000e+00  9.6947830084348236e-04 -1.0920855505252181e+01 0.0000000000000000e+00  4.2670447419029716e-03 -1.0534638942515846e+01 0.0000000000000000e+00  0.0000000000000000e+00 0.0000000000000000e+00 0.0000000000000000e+00  0.0000000000000000e+00 0.0000000000000000e+00 0.0000000000000000e+00  1.1213874619436282e-02 -1.0536793647379685e+01 0.0000000000000000e+00  1.1430884529059710e-03 -1.0912434873182683e+01 0.0000000000000000e+00  6.5844142955848494e-03 -1.0519710256271379e+01 0.0000000000000000e+00  -4.9863758169527594e-02 2.6778057062684768e-02 0.0000000000000000e+00  -3.9016773586797629e-02 1.6490528085185578e-02 0.0000000000000000e+00  -1.9808226708233144e-02 7.7668995925196348e-03 0.0000000000000000e+00  3.5935369006145309e-03 -1.8375108594408978e-02 0.0000000000000000e+00  2.7224311054168003e-03 -6.9688219389965073e-03 0.0000000000000000e+00  4.9641057089979878e-03 -4.8728672891170544e-03 0.0000000000000000e+00  6.9164068099239855e-03 -5.2846990894126070e-03 0.0000000000000000e+00  5.1432475084765535e-03 -5.8881676421099136e-03 0.0000000000000000e+00  3.4018026030578852e-02 -1.1253473189791056e-02 0.0000000000000000e+00  4.2316151754645655e-02 -1.7133906285907208e-02 0.0000000000000000e+00  4.2568110062547612e-02 -1.6615110355848731e-02 0.0000000000000000e+00  1.5895764370671590e-02 -1.0535816315243631e+01 0.0000000000000000e+00  9.5958586275477972e-04 -1.0916614569776625e+01 0.0000000000000000e+00  6.0911998340409416e-03 -1.0533151044205203e+01 0.0000000000000000e+00  0.0000000000000000e+00 0.0000000000000000e+00 0.0000000000000000e+00  0.0000000000000000e+00 0.0000000000000000e+00 0.0000000000000000e+00  1.3939332360763121e-02 -1.0539509688511592e+01 0.0000000000000000e+00  7.8667022623636566e-03 -1.0913720268633549e+01 0.0000000000000000e+00  1.5707508510286794e-02 -1.0523448779173810e+01 0.0000000000000000e+00  -1.1804351234076868e-02 2.2933190698397513e-02 0.0000000000000000e+00  -2.1830471714331480e-02 1.9130373212083475e-02 0.0000000000000000e+00  -3.4861800600554528e-02 2.7224882529490180e-02 0.0000000000000000e+00  -1.3842302584972337e-02 -1.9954875691393495e-02 0.0000000000000000e+00  -4.8368437263550121e-03 -1.7911330890440787e-02 0.0000000000000000e+00  1.1965445169531796e-03 -1.4736235671908647e-02 0.0000000000000000e+00  4.0752038467236854e-03 -1.6564794707424935e-02 0.0000000000000000e+00  -1.9840684975438124e-03 -2.5045594365902119e-02 0.0000000000000000e+00  3.4874502799717767e-03 -2.0126066765370765e-02 0.0000000000000000e+00  1.7148347520546694e-02 -9.9612719735592686e-03 0.0000000000000000e+00  2.7599612253706461e-02 7.1610713266917064e-03 0.0000000000000000e+00  1.5735984339881146e-02 -1.0538416495249631e+01 0.0000000000000000e+00  -4.3103009877619169e-03 -1.0922460945306012e+01 0.0000000000000000e+00  4.1444869185993452e-03 -1.0538631811086622e+01 0.0000000000000000e+00  0.0000000000000000e+00 0.0000000000000000e+00 0.0000000000000000e+00  0.0000000000000000e+00 0.0000000000000000e+00 0.0000000000000000e+00  1.7542842138193241e-02 -1.0550348743873895e+01 0.0000000000000000e+00  1.6009914664138689e-02 -1.0923882410809091e+01 0.0000000000000000e+00  2.7945438068863401e-02 -1.0533604165950987e+01 0.0000000000000000e+00  3.4647086924475483e-02 1.1218028587167606e-02 0.0000000000000000e+00  2.8781724215860872e-02 1.9773118804034362e-03 0.0000000000000000e+00  2.5588880428003787e-02 -1.4917987522499539e-02 0.0000000000000000e+00  2.3101547749752253e-02 -1.6946108783034528e-02 0.0000000000000000e+00  1.1741636450039113e-02 -1.2048506769020475e-02 0.0000000000000000e+00  2.6552574074928375e-03 -9.3424015046786636e-03 0.0000000000000000e+00  -5.0653174737888083e-03 -1.0152730694023634e-02 0.0000000000000000e+00  -1.3183145643491732e-02 -1.3108237882940296e-02 0.0000000000000000e+00  -3.3272862259134742e-02 -5.1764190384888881e-03 0.0000000000000000e+00  -2.7481883042138212e-02 4.0368948766847960e-03 0.0000000000000000e+00  -2.4274778176638003e-02 1.0259960503512109e-02 0.0000000000000000e+00  -6.8415934238488275e-03 -1.0554715009707586e+01 0.0000000000000000e+00  -9.3175156785910082e-03 -1.0937447426495789e+01 0.0000000000000000e+00  1.2092760153313944e-03 -1.0553479192307382e+01 0.0000000000000000e+00  0.0000000000000000e+00 0.0000000000000000e+00 0.0000000000000000e+00  0.0000000000000000e+00 0.0000000000000000e+00 0.0000000000000000e+00  2.0774676396472645e-02 -1.0569211950535539e+01 0.0000000000000000e+00  2.3077036732539857e-02 -1.0942729566167072e+01 0.0000000000000000e+00  3.9034278380626314e-02 -1.0554306486978266e+01 0.0000000000000000e+00  6.6534015900404517e-02 -1.1638150826703835e-03 0.0000000000000000e+00  6.2344368560104717e-02 -8.8499881352093746e-03 0.0000000000000000e+00  5.7441234446211936e-02 -1.5915224615553284e-02 0.0000000000000000e+00  3.1714340856675842e-02 1.2169685684133331e-02 0.0000000000000000e+00  1.6174124000212009e-02 1.0548234015958183e-02 0.0000000000000000e+00  2.8883759970379291e-03 1.0970625600698163e-02 0.0000000000000000e+00  -1.0004090691382592e-02 1.0142296580097016e-02 0.0000000000000000e+00  -2.7412819120767505e-02 8.6741643531743264e-03 0.0000000000000000e+00  -6.6094551321491848e-02 5.9466099668657423e-03 0.0000000000000000e+00  -6.2338575749000230e-02 1.2485891060594379e-02 0.0000000000000000e+00  -5.7550503922786739e-02 2.0898032140921091e-02 0.0000000000000000e+00  -2.6468284301654866e-02 -1.0581057426952142e+01 0.0000000000000000e+00  -1.8247887142888674e-02 -1.0960439639277830e+01 0.0000000000000000e+00  -1.2743087671727069e-03 -1.0575741295622938e+01 0.0000000000000000e+00  0.0000000000000000e+00 0.0000000000000000e+00 0.0000000000000000e+00  0.0000000000000000e+00 0.0000000000000000e+00 0.0000000000000000e+00  2.2792985935329947e-02 -1.0593586566020905e+01 0.0000000000000000e+00  2.7341831610492067e-02 -1.0967368291208933e+01 0.0000000000000000e+00  4.5605421012675430e-02 -1.0581213939862652e+01 0.0000000000000000e+00  8.6436206991817949e-02 -9.9778651385271401e-03 0.0000000000000000e+00  8.4504246047989701e-02 -1.4020197930212874e-02 0.0000000000000000e+00  8.2213194995945343e-02 -1.8932405731185729e-02 0.0000000000000000e+00  4.0465664806822371e-02 3.9086224295172368e-02 0.0000000000000000e+00  1.9353942460358691e-02 3.8626308502160082e-02 0.0000000000000000e+00  2.3787023209010027e-03 3.9215970862623802e-02 0.0000000000000000e+00  -1.4477600891062675e-02 3.8831274529376417e-02 0.0000000000000000e+00  -3.7100474036126305e-02 3.8578086231984686e-02 0.0000000000000000e+00  -8.5538881360957594e-02 1.4904073369101652e-02 0.0000000000000000e+00  -8.3495493374449017e-02 1.8799092231855496e-02 0.0000000000000000e+00  -8.1002389998085914e-02 2.3382015949201831e-02 0.0000000000000000e+00  -3.8515325164796312e-02 -1.0611297513283368e+01 0.0000000000000000e+00  -2.4586436676955589e-02 -1.0986669712777175e+01 0.0000000000000000e+00  -3.3929537380849081e-03 -1.0601387440077580e+01 0.0000000000000000e+00  0.0000000000000000e+00 0.0000000000000000e+00 0.0000000000000000e+00  0.0000000000000000e+00 0.0000000000000000e+00 0.0000000000000000e+00  2.3281242651765007e-02 -1.0620075200857766e+01 0.0000000000000000e+00  2.8271754900993075e-02 -1.0994211384731656e+01 0.0000000000000000e+00  4.7149228052171005e-02 -1.0610328236735269e+01 0.0000000000000000e+00  9.4294164406947698e-02 -1.5694724028580822e-02 0.0000000000000000e+00  9.4173199895160695e-02 -1.6518993872297164e-02 0.0000000000000000e+00  9.3231761172752198e-02 -1.8035218981880045e-02 0.0000000000000000e+00  4.3284521553344092e-02 7.3917271085627428e-02 0.0000000000000000e+00  2.0283056927487830e-02 7.1879390123056927e-02 0.0000000000000000e+00  1.6659860776506970e-03 7.2061784202706203e-02 0.0000000000000000e+00  -1.6761573397568078e-02 7.2209568038960212e-02 0.0000000000000000e+00  -4.1474569706745811e-02 7.3569821167051394e-02 0.0000000000000000e+00  -9.2731414874212229e-02 2.0783154262767341e-02 0.0000000000000000e+00  -9.2569019353620760e-02 2.1205649688040423e-02 0.0000000000000000e+00  -9.1670347616286993e-02 2.2243613650387219e-02 0.0000000000000000e+00  -4.3256937500635528e-02 -1.0641889626191894e+01 0.0000000000000000e+00  -2.7466932714348503e-02 -1.1013579726209217e+01 0.0000000000000000e+00  -4.4804052103881902e-03 -1.0627373903962010e+01 0.0000000000000000e+00  -1.9950638376994514e-11 9.8332195402295079e-12 0.0000000000000000e+00  0.0000000000000000e+00 0.0000000000000000e+00 0.0000000000000000e+00  2.2252544686857282e-02 -1.0645307526222082e+01 0.0000000000000000e+00  2.6005265497551739e-02 -1.1019873073109613e+01 0.0000000000000000e+00  4.3957860922663336e-02 -1.0638111972139006e+01 0.0000000000000000e+00  9.0669117039156491e-02 -1.8621464699938365e-02 0.0000000000000000e+00  9.1943711196164804e-02 -1.6181086730071317e-02 0.0000000000000000e+00  9.2414443115967831e-02 -1.4263910635617225e-02 0.0000000000000000e+00  4.1361371697955056e-02 1.0934149955747971e-01 0.0000000000000000e+00  1.9148705123763040e-02 1.0605637934819624e-01 0.0000000000000000e+00  1.0841450836555136e-03 1.0586509369320990e-01 0.0000000000000000e+00  -1.6783621567962564e-02 1.0653014238662023e-01 0.0000000000000000e+00  -4.0815715507232009e-02 1.0940375545236559e-01 0.0000000000000000e+00  -8.8500735070345615e-02 2.3692921940884286e-02 0.0000000000000000e+00  -8.9741681082712757e-02 2.0881319262581906e-02 0.0000000000000000e+00  -9.0183208891296468e-02 1.8621068869197829e-02 0.0000000000000000e+00  -4.0379677162514199e-02 -1.0668820157606326e+01 0.0000000000000000e+00  -2.6304895037139647e-02 -1.1037681886899245e+01 0.0000000000000000e+00  -4.0327206772612411e-03 -1.0650819914900564e+01 0.0000000000000000e+00  0.0000000000000000e+00 0.0000000000000000e+00 0.0000000000000000e+00  0.0000000000000000e+00 0.0000000000000000e+00 0.0000000000000000e+00  1.9902301571981147e-02 -1.0666326304582778e+01 0.0000000000000000e+00  2.1011690583186429e-02 -1.1041387285749117e+01 0.0000000000000000e+00  3.6734252203471957e-02 -1.0661430530805767e+01 0.0000000000000000e+00  7.6988911174048019e-02 -1.8873775146428320e-02 0.0000000000000000e+00  7.9327677352144313e-02 -1.3560122222735636e-02 0.0000000000000000e+00  8.0948823730272679e-02 -8.6467507579428855e-03 0.0000000000000000e+00  3.5075519856054581e-02 1.4191286167957820e-01 0.0000000000000000e+00  1.6216921495622625e-02 1.3741528195050448e-01 0.0000000000000000e+00  6.4866491379582836e-04 1.3683977855194060e-01 0.0000000000000000e+00  -1.4682604507527983e-02 1.3790210550434173e-01 0.0000000000000000e+00  -3.5469038308098444e-02 1.4213053095480438e-01 0.0000000000000000e+00  -7.4286537310107773e-02 2.3915550338064102e-02 0.0000000000000000e+00  -7.6568501095828551e-02 1.8293180929921327e-02 0.0000000000000000e+00  -7.8158606577377790e-02 1.3080234284365949e-02 0.0000000000000000e+00  -3.1112725881475359e-02 -1.0689195127259001e+01 0.0000000000000000e+00  -2.1413373154092693e-02 -1.1056158041434520e+01 0.0000000000000000e+00  -1.9799745839999667e-03 -1.0669027678497811e+01 0.0000000000000000e+00  0.0000000000000000e+00 0.0000000000000000e+00 0.0000000000000000e+00  0.0000000000000000e+00 0.0000000000000000e+00 0.0000000000000000e+00  1.6547893811843083e-02 -1.0680834302369629e+01 0.0000000000000000e+00  1.3985328280638133e-02 -1.1056433120961108e+01 0.0000000000000000e+00  2.6503658535698554e-02 -1.0677814667663139e+01 0.0000000000000000e+00  5.5305626940744833e-02 -1.6742195767088217e-02 0.0000000000000000e+00  5.8356580684564861e-02 -9.2052652173881221e-03 0.0000000000000000e+00  6.0872246303946165e-02 -1.9349807310557170e-03 0.0000000000000000e+00  2.5223224191027994e-02 1.6805937729591020e-01 0.0000000000000000e+00  1.1781115450867526e-02 1.6259200822900161e-01 0.0000000000000000e+00  3.5433281501355985e-04 1.6165478112458043e-01 0.0000000000000000e+00  -1.0801787915317409e-02 1.6297547617012453e-01 0.0000000000000000e+00  -2.6252610567756320e-02 1.6829066723318592e-01 0.0000000000000000e+00  -5.2178927645039987e-02 2.1756087715456708e-02 0.0000000000000000e+00  -5.5148672908623401e-02 1.3992719757980632e-02 0.0000000000000000e+00  -5.7616054304017068e-02 6.5089992713096810e-03 0.0000000000000000e+00  -1.7048942832219548e-02 -1.0700921051107507e+01 0.0000000000000000e+00  -1.3637635438746076e-02 -1.1067001200995438e+01 0.0000000000000000e+00  1.4155143334431950e-03 -1.0679980594589573e+01 0.0000000000000000e+00  0.0000000000000000e+00 0.0000000000000000e+00 0.0000000000000000e+00  0.0000000000000000e+00 0.0000000000000000e+00 0.0000000000000000e+00  1.2586259285436358e-02 -1.0687363274846902e+01 0.0000000000000000e+00  5.7651429451579085e-03 -1.1063503664565934e+01 0.0000000000000000e+00  1.4501424674507043e-02 -1.0685648989183511e+01 0.0000000000000000e+00  2.8118307940040731e-02 -1.2607887992891115e-02 0.0000000000000000e+00  3.1536182966902013e-02 -3.6752750492080578e-03 0.0000000000000000e+00  3.4662513724388271e-02 5.1233766544649603e-03 0.0000000000000000e+00  1.2880831192493196e-02 1.8498949191175340e-01 0.0000000000000000e+00  6.2948801858418646e-03 1.7891438026372397e-01 0.0000000000000000e+00  1.8500409673996758e-04 1.7769058052324921e-01 0.0000000000000000e+00  -5.6294919312224207e-03 1.7911864256041349e-01 0.0000000000000000e+00  -1.4254525392447252e-02 1.8516203982084023e-01 0.0000000000000000e+00  -2.4709431498769797e-02 1.7605677587616608e-02 0.0000000000000000e+00  -2.8024186385791350e-02 8.5491667181387763e-03 0.0000000000000000e+00  -3.1090796098370666e-02 -3.