<?xml version="1.0"?>
<VTKFile type="UnstructuredGrid"  version="0.1"  >
<UnstructuredGrid>
<Piece  NumberOfPoints="589" NumberOfCells="1080">
<Points>
<DataArray  type="Float64"  NumberOfComponents="3"  format="ascii">-9 0 0  -8 0 0  -7 0 0  -6 0 0  -5 0 0  -4 0 0  -3 0 0  -2 0 0  -1 0 0  0 0 0  1 0 0  2 0 0  3 0 0  4 0 0  5 0 0  6 0 0  7 0 0  8 0 0  9 0 0  -9 2 0  -8.000007550382106 1.999988814643401 0  -7.000015840465391 1.999978990230275 0  -6.000026595020437 1.999971629738899 0  -5.000043744858476 1.999967210466129 0  -4.000026126639377 1.999975557744174 0  -3.000007972887197 1.999983376198832 0  -1.999999050433229 1.999990671915782 0  -0.9999974160534243 1.999996436906085 0  -3.347891093742454e-07 1.999998973211688 0  0.9999964086245517 1.999997250541542 0  1.999996902512456 1.999991693079549 0  3.000003893732757 1.99998487714972 0  4.000018230119521 1.999977597642195 0  5.000038940845519 1.99997468368029 0  6.000023472540473 1.999975746318046 0  7.000013945114449 1.999981294960478 0  8.000006654297858 1.999989875488822 0  9 2 0  -9 4 0  -8.000012141787492 3.999972186223142 0  -7.000021823069846 3.999948125304542 0  -6.000027608819484 3.999931494891397 0  -5.000029802342429 3.99992580547715 0  -4.000004266480526 3.999929689176898 0  -2.99998705958089 3.999951568944659 0  -1.999982395057009 3.999980033483647 0  -0.9999886149915377 4.00000292501284 0  -7.680656577599958e-07 4.000012178559304 0  0.999986807805092 4.000005049263741 0  1.999979671956113 3.999985707335844 0  2.999983381408985 3.999959522978742 0  3.999999616394583 3.999933235787066 0  5.000024299251458 3.999924567812339 0  6.000023181394718 3.999933549078454 0  7.000018943600664 3.999950463130072 0  8.000010762224731 3.999973575827825 0  9 4 0  -9 6 0  -8.000026574328144 5.99994054982306 0  -7.000043387743196 5.999887541545139 0  -6.000042991556741 5.99984759910501 0  -5.000023248892908 5.999827075555644 0  -3.999973612299171 5.999859476982701 0  -2.999950939389131 5.999927088202357 0  -1.999959629652936 5.999997939797806 0  -0.999981575014418 6.000037332148988 0  -3.770361331182033e-06 6.000045280875112 0  0.9999763205934168 6.000032580726406 0  1.999961219497504 5.999997417060181 0  2.999955685155323 5.9999380195777 0  3.999967524426533 5.999876469676203 0  5.000009774463754 5.999846103091167 0  6.00003536996507 5.999859623627762 0  7.000039715494406 5.999894840085292 0  8.000025192188739 5.999944033475774 0  9 6 0  -9 8 0  -8.000080040715478 7.999883161693904 0  -7.00013378481826 7.999774711491105 0  -6.000135756757477 7.999686044569979 0  -5.000064144392649 7.99963594853728 0  -3.999968320997199 7.999785312348863 0  -2.999985844322406 7.999960771315584 0  -2.00002164657457 8.000046256437322 0  -1.000024568921527 8.000055989538495 0  -3.042031781358673e-06 8.000058816900207 0  1.000013140545141 8.000067377410067 0  2.000006775322536 8.000031819450006 0  2.999965489657959 7.999971231515788 0  3.999951729887914 7.999821158890973 0  5.000045731704898 7.999651823875479 0  6.000132546338234 7.999698937868587 0  7.000135948856933 7.999783327183983 0  8.00008228578764 7.999887412104149 0  9 8 0  -9 10 0  -8.000238613632272 9.999792285571775 0  -7.000431183648201 9.999582847980598 0  -6.000522777619576 9.999370370882307 0  -5.000436865965932 9.999154506278606 0  -4.000285082904952 9.999636478201312 0  -3.000309710641168 10.00005087055587 0  -2.000247866649621 9.999979479975426 0  -1.00011432001298 9.999956570783699 0  -1.59317652683591e-05 9.99995098345965 0  1.000081626566405 9.999951419931344 0  2.000211340220363 9.999948853717379 0  3.000325803688074 10.00009739992121 0  4.000311891938652 9.999705496089138 0  5.000483866365994 9.999188409204676 0  6.000563200633262 9.999389282346128 0  7.000460337058398 9.999593105372986 0  8.000253799930382 9.999796825434892 0  9 10 0  -9 12 0  -8.000580990973198 11.99970843953081 0  -7.001131882653024 11.99940337429384 0  -6.001618654531836 11.99906865079817 0  -5.001999101081924 11.99868174041589 0  -4.0019216866086 11.9995601481711 0  -3.001991792641987 12.00042978898831 0  -2.001368141277464 12.0003243254136 0  -1.000674750693599 12.00026711901408 0  4.504864449119549e-05 12.00025571909057 0  1.000772052393878 12.00029191203681 0  2.001490117148099 12.00038626871258 0  3.002167119946961 12.00056528009823 0  4.002092834749208 11.99962552317533 0  5.002142144285503 11.99867800338366 0  6.001721808471645 11.99906812959315 0  7.001199000174229 11.99940348117939 0  8.000614108669605 11.99970853588331 0  9 12 0  -9 14 0  -8.001043002039802 13.99967876784919 0  -7.002087838896252 13.99934280237694 0  -6.003137742686103 13.9989760706597 0  -5.004199522690016 13.99855999144235 0  -4.0042106701288 13.99958625100797 0  -3.004216954764138 14.00062551631326 0  -2.002768813529262 14.00047642896937 0  -1.001341448968636 14.00039469457116 0  7.738938780542348e-05 14.00037031597987 0  1.001499351578243 14.00040003472035 0  2.002935264765197 14.0004854760498 0  3.004393713505642 14.00063129381296 0  4.004405328048969 13.99958845020467 0  5.004411487518935 13.99855210455198 0  6.00328846667563 13.99896667714376 0  7.00218491912092 13.99933540427738 0  8.001090614524779 13.99967480564767 0  9 14 0  -9 16 0  -8.001496632637366 15.99970813268936 0  -7.003021812672708 15.99940551395259 0  -6.004606566148214 15.99908120903402 0  -5.006286972573979 15.99872409048024 0  -4.006346878956171 15.99959929952596 0  -3.006290473573313 16.00046986122207 0  -2.004089074756942 16.00035995695803 0  -1.001975224346523 16.00029352036529 0  9.727895820838484e-05 16.00026913156882 0  1.002172100002536 16.00028586462113 0  2.004292917128419 16.00034377471884 0  3.006506207949757 16.00044367654272 0  4.006569665762668 15.99956118252817 0  5.006514179591816 15.99867801821951 0  6.004774124498232 15.99904901501666 0  7.003131983431141 15.99938491645905 0  8.001551236808854 15.99969805403261 0  9 16 0  -9 18 0  -8.001834973911585 17.99978053004627 0  -7.00371552900922 17.99955507833552 0  -6.005689618128321 17.9993177762373 0  -5.007809910871487 17.99906300537846 0  -4.007900206396023 17.99960226335772 0  -3.007813339090382 18.00014082648632 0  -2.005062589338155 18.00007029958194 0  -1.002445225983248 18.00002486566597 0  0.0001078349030502963 18.00000416233933 0  1.002662329133371 18.00000767311057 0  2.005283897664066 18.00003476373249 0  3.008041301968129 18.00008455176141 0  4.008133328370466 17.99954085331875 0  5.0080456934168 17.99899876483541 0  6.005864581096279 17.9992719951887 0  7.003831243755539 17.99952564466979 0  8.001892548180349 17.99976612717524 0  9 18 0  -9 20 0  -8.001989974514972 19.99987683704013 0  -7.004033099232772 19.99975207007624 0  -6.006184550621617 19.99962427660243 0  -5.008503556142202 19.99949239020549 0  -4.008606478770631 19.99960229304153 0  -3.008504988991348 19.99971142175584 0  -2.005506443304772 19.99968077296891 0  -1.002659868387832 19.99965780811827 0  0.000112580818765906 19.99964285466696 0  1.002885933555199 19.99963566278295 0  2.005735182607696 19.99963542567979 0  3.008738074353425 19.99964073029452 0  4.008841570424019 19.99953075603565 0  5.008739451453356 19.99942187555376 0  6.006360295760048 19.99957337123713 0  7.004149693733077 19.99971907534595 0  8.002048099150599 19.99986062196909 0  8.999999999989461 19.9999999999934 0  -9 22 0  -8.001931435926219 21.99997954023256 0  -7.003915365691042 21.99996116268595 0  -6.00600592430273 21.9999471513882 0  -5.008260514205676 21.9999401978701 0  -4.008361216890287 21.99959822332905 0  -3.008261470918436 21.99925537829688 0  -2.005346347727643 21.99926067632017 0  -1.002579861826498 21.99925888667631 0  0.0001137078904825581 21.99925068246536 0  1.002807794238283 21.99923600072776 0  2.005575808651006 21.99921405647789 0  3.008493410418463 21.99918332933549 0  4.008592817013724 21.99952751862671 0  5.008491089045471 21.99987231729463 0  6.00617830588156 21.99989790059468 0  7.004030010131341 21.99992911453878 0  8.001988669612722 21.99996375183733 0  9 22 0  -9 24 0  -8.00166195852565 24.00007391483653 0  -7.003369077411413 24.00015278865586 0  -6.005167780779053 24.00024178625231 0  -5.007106938358807 24.00034649696468 0  -4.007193753105204 23.99959030180429 0  -3.007108553990951 23.99883331631749 0  -2.004595518642458 23.99886877624362 0  -1.002209951038428 23.99888547813993 0  0.0001128600473912505 23.99888427344088 0  1.002435895661292 23.99886523060417 0  2.004822122299211 23.99882763791303 0  3.007336210688556 23.9987699982533 0  4.00741918877941 23.99952932194689 0  5.007330025119534 24.00028898012012 0  6.00533501228461 24.00019988282431 0  7.003480510297671 24.00012544114835 0  8.001717650717893 24.00006041789329 0  9 24 0  -9 26 0  -8.001210742530381 26.00014847288915 0  -7.002454286259763 26.00030393082098 0  -6.003764324148741 26.00047356611206 0  -5.005176159601915 26.00066499964388 0  -4.005240222821623 25.99957906849761 0  -3.005179189980078 25.99849252056257 0  -2.00333848684323 25.99855156551205 0  -1.001590679355765 25.99858335043786 0  0.0001112711726508246 25.99858886679527 0  1.001813227763239 25.9985682999027 0  2.003561039760506 25.998521030545 0  3.005401705108008 25.99844563133564 0  4.005459167055221 25.99953449155602 0  5.005391799909811 26.00062348389066 0  6.003926343986031 26.00044324140772 0  7.00256242166535 26.00028410127562 0  8.001264838669568 26.00013867399383 0  9 26 0  -9 28 0  -8.000627049664669 28.00019511314729 0  -7.001271197926429 28.00039837646986 0  -6.001950049630654 28.00061814952951 0  -5.002681982777033 28.0008632173383 0  -4.00271724308705 27.99956557598204 0  -3.002686681056084 27.99826760732351 0  -2.001713471454663 27.99834303173299 0  -1.000789609637001 27.99838592848826 0  0.0001098183007831536 27.99839741649516 0  1.001009104302927 27.99837779476657 0  2.001932523531756 27.99832654217292 0  3.002904939540681 27.99824231631425 0  4.002931115566864 27.9995418586072 0  5.002891989180757 28.00084144884288 0  6.002108107669128 28.00060221515587 0  7.001376819280273 28.00038793965212 0  8.00067992913236
[...]
<PointData  Vectors="f_44-0"> 
<DataArray  type="Float64"  Name="f_44-0"  NumberOfComponents="3" format="ascii">0.0000000000000000e+00 0.0000000000000000e+00 0.0000000000000000e+00  1.3587770322450812e-07 -4.9264440590475855e+00 0.0000000000000000e+00  2.0663902940653736e-07 -4.8885382994035735e+00 0.0000000000000000e+00  4.2470254908628446e-07 -4.4676472287635338e+00 0.0000000000000000e+00  0.0000000000000000e+00 0.0000000000000000e+00 0.0000000000000000e+00  0.0000000000000000e+00 0.0000000000000000e+00 0.0000000000000000e+00  0.0000000000000000e+00 0.0000000000000000e+00 0.0000000000000000e+00  0.0000000000000000e+00 0.0000000000000000e+00 0.0000000000000000e+00  0.0000000000000000e+00 0.0000000000000000e+00 0.0000000000000000e+00  0.0000000000000000e+00 0.0000000000000000e+00 0.0000000000000000e+00  0.0000000000000000e+00 0.0000000000000000e+00 0.0000000000000000e+00  0.0000000000000000e+00 0.0000000000000000e+00 0.0000000000000000e+00  0.0000000000000000e+00 0.0000000000000000e+00 0.0000000000000000e+00  0.0000000000000000e+00 0.0000000000000000e+00 0.0000000000000000e+00  0.0000000000000000e+00 0.0000000000000000e+00 0.0000000000000000e+00  1.3975790967580202e-07 -4.9410140181096347e+00 0.0000000000000000e+00  2.0896326725814738e-07 -4.9021869037567676e+00 0.0000000000000000e+00  4.2658338544453707e-07 -4.4788382176768122e+00 0.0000000000000000e+00  0.0000000000000000e+00 0.0000000000000000e+00 0.0000000000000000e+00  0.0000000000000000e+00 0.0000000000000000e+00 0.0000000000000000e+00  -9.6987461635244434e-03 -4.6338240814141249e+00 0.0000000000000000e+00  3.5396801271085311e-03 -4.8860736952942982e+00 0.0000000000000000e+00  3.0258709278839020e-02 -4.6455024714346358e+00 0.0000000000000000e+00  1.6686101874292428e-03 -4.4866463035255746e-04 0.0000000000000000e+00  1.7999008036524730e-03 -1.0197902512891588e-03 0.0000000000000000e+00  9.8272144050585682e-04 -5.9508909790406531e-04 0.0000000000000000e+00  7.3471742019387467e-04 1.1156335104375315e-04 0.0000000000000000e+00  4.2075270846555048e-04 4.9372696104230097e-04 0.0000000000000000e+00  1.6359731769415763e-04 3.9789709279643403e-04 0.0000000000000000e+00  -1.0062680654173557e-04 -1.2594279716473532e-05 0.0000000000000000e+00  -3.0448494036720483e-04 -5.4353235616045757e-04 0.0000000000000000e+00  -6.0464605278661516e-04 -1.3512382101240174e-03 0.0000000000000000e+00  -1.0432736812232390e-03 -1.5357763652452698e-03 0.0000000000000000e+00  -1.7879985467198229e-03 -2.6450441099060934e-03 0.0000000000000000e+00  -1.0073551958598383e-02 -4.6467344763737808e+00 0.0000000000000000e+00  3.7577913788710417e-03 -4.8996711768808181e+00 0.0000000000000000e+00  3.0288294498121780e-02 -4.6588055317350845e+00 0.0000000000000000e+00  0.0000000000000000e+00 0.0000000000000000e+00 0.0000000000000000e+00  0.0000000000000000e+00 0.0000000000000000e+00 0.0000000000000000e+00  1.3385173933277079e-02 -4.6439655310134347e+00 0.0000000000000000e+00  -5.3249501240079525e-03 -4.8695032188327021e+00 0.0000000000000000e+00  1.3400618289571625e-02 -4.6472112783082125e+00 0.0000000000000000e+00  -1.4363116153041336e-03 -2.0533078704398607e-03 0.0000000000000000e+00  -1.0904542744872039e-04 1.1453377513898675e-04 0.0000000000000000e+00  1.8279413112450298e-04 1.8261502181564431e-03 0.0000000000000000e+00  7.9748799819583728e-05 1.8957508404119912e-03 0.0000000000000000e+00  -3.7970101622822122e-04 8.2915563284281020e-04 0.0000000000000000e+00  -5.3597933390557931e-04 -1.3856818783421454e-04 0.0000000000000000e+00  -3.8722209244879531e-04 -2.8204211946850533e-04 0.0000000000000000e+00  3.7909489635470049e-04 -8.8685945094967402e-04 0.0000000000000000e+00  5.1648935876954074e-04 -1.5545457354215809e-03 0.0000000000000000e+00  1.7074499167975436e-04 -7.7202492031422322e-04 0.0000000000000000e+00  -2.8428590385275691e-04 1.6796744575695106e-04 0.0000000000000000e+00  1.3454278168658764e-02 -4.6566420424969888e+00 0.0000000000000000e+00  -5.4606945390530534e-03 -4.8823000709372231e+00 0.0000000000000000e+00  1.2680020409097712e-02 -4.6599492635528552e+00 0.0000000000000000e+00  0.0000000000000000e+00 0.0000000000000000e+00 0.0000000000000000e+00  0.0000000000000000e+00 0.0000000000000000e+00 0.0000000000000000e+00  1.3274191008526771e-02 -4.6469395209184414e+00 0.0000000000000000e+00  -3.9033996405333565e-03 -4.8703678354428179e+00 0.0000000000000000e+00  1.3207651779864703e-02 -4.6450379264441661e+00 0.0000000000000000e+00  -3.2274698182279478e-03 2.1524839054139224e-03 0.0000000000000000e+00  -1.6823904567190423e-03 4.9926045995021843e-03 0.0000000000000000e+00  -1.5971507542701425e-03 4.0675188819991569e-03 0.0000000000000000e+00  -2.6104114912930626e-03 -8.0431885829120617e-04 0.0000000000000000e+00  -1.6107085001338974e-03 -3.0074343336380883e-03 0.0000000000000000e+00  -1.9352646305520853e-04 -1.5565850254647318e-03 0.0000000000000000e+00  9.0480176211376608e-04 -7.2680698757395901e-04 0.0000000000000000e+00  7.0138890330886656e-04 -4.8566418134647708e-04 0.0000000000000000e+00  1.2873078663826305e-03 5.1672763482434422e-06 0.0000000000000000e+00  2.0753830510876216e-03 -2.4200343306515909e-03 0.0000000000000000e+00  4.7241384489206026e-04 -5.0152361893836686e-03 0.0000000000000000e+00  1.5483738543945464e-02 -4.6583022772423206e+00 0.0000000000000000e+00  -3.3514034393925260e-03 -4.8814737737244931e+00 0.0000000000000000e+00  1.2202227039534353e-02 -4.6566398450943813e+00 0.0000000000000000e+00  0.0000000000000000e+00 0.0000000000000000e+00 0.0000000000000000e+00  0.0000000000000000e+00 0.0000000000000000e+00 0.0000000000000000e+00  1.2589565214362232e-02 -4.6475008488869882e+00 0.0000000000000000e+00  -4.6787317658516315e-03 -4.8727508100711443e+00 0.0000000000000000e+00  1.1875246779956895e-02 -4.6521910176868460e+00 0.0000000000000000e+00  -1.2381662837087925e-02 -2.1567515390753175e-03 0.0000000000000000e+00  -1.4461500890232503e-02 2.9733963687384045e-03 0.0000000000000000e+00  -4.9285823213940008e-03 -5.2802197882673785e-03 0.0000000000000000e+00  -4.5902646070096519e-03 -1.0500407055066710e-02 0.0000000000000000e+00  5.6271804612004705e-04 -5.6731212119268707e-03 0.0000000000000000e+00  2.1449474876872052e-03 -4.8496140965687117e-03 0.0000000000000000e+00  5.0910370274187232e-03 -9.7522146691288360e-03 0.0000000000000000e+00  4.7997284573432376e-03 -1.6830775715515366e-03 0.0000000000000000e+00  1.8064170696414607e-02 -6.1677798746764172e-03 0.0000000000000000e+00  1.9489741725151295e-02 -1.5508244688419267e-02 0.0000000000000000e+00  1.2115613625564396e-02 -1.4206069006710564e-02 0.0000000000000000e+00  1.6543548316271101e-02 -4.6566887000564332e+00 0.0000000000000000e+00  -1.5696078561703744e-03 -4.8791669327805556e+00 0.0000000000000000e+00  1.2996896677517428e-02 -4.6538423111558380e+00 0.0000000000000000e+00  0.0000000000000000e+00 0.0000000000000000e+00 0.0000000000000000e+00  0.0000000000000000e+00 0.0000000000000000e+00 0.0000000000000000e+00  1.1104770698895646e-02 -4.6433152524803951e+00 0.0000000000000000e+00  -1.0097475333788547e-02 -4.8668853639106260e+00 0.0000000000000000e+00  -1.8362322161101462e-03 -4.6411683483146664e+00 0.0000000000000000e+00  -5.4808228104199309e-02 2.0592905452150322e-02 0.0000000000000000e+00  -4.2417776949127683e-02 1.3958598136764606e-02 0.0000000000000000e+00  -2.2882858984143592e-02 8.3926405257335832e-03 0.0000000000000000e+00  1.6990648409844250e-03 -1.9087567053802164e-02 0.0000000000000000e+00  1.8690456693770739e-03 -7.5201197702847158e-03 0.0000000000000000e+00  4.9470676984760880e-03 -5.3850222810905924e-03 0.0000000000000000e+00  7.6803343009433454e-03 -5.7593462120030308e-03 0.0000000000000000e+00  6.9761211725354521e-03 -6.4098448023190892e-03 0.0000000000000000e+00  3.6566876263417605e-02 -1.0531123219022626e-02 0.0000000000000000e+00  4.4743214371711977e-02 -1.9408690029181962e-02 0.0000000000000000e+00  4.6588009560109694e-02 -2.3050785343365812e-02 0.0000000000000000e+00  2.4375223077633918e-02 -4.6523800522177705e+00 0.0000000000000000e+00  1.8523770268570418e-04 -4.8747376004098504e+00 0.0000000000000000e+00  1.3376039692834593e-02 -4.6497148086204874e+00 0.0000000000000000e+00  0.0000000000000000e+00 0.0000000000000000e+00 0.0000000000000000e+00  0.0000000000000000e+00 0.0000000000000000e+00 0.0000000000000000e+00  1.1141473571114547e-02 -4.6373873831306609e+00 0.0000000000000000e+00  -9.8260512247709039e-03 -4.8604851679180445e+00 0.0000000000000000e+00  2.8769480333848286e-03 -4.6368726291144533e+00 0.0000000000000000e+00  -2.8471852132738222e-02 1.2771917924672298e-02 0.0000000000000000e+00  -3.8151598086415647e-02 1.6070190733803360e-02 0.0000000000000000e+00  -5.2107548207714398e-02 3.1515113177541167e-02 0.0000000000000000e+00  -2.0324519686422522e-02 -2.6741727269586093e-02 0.0000000000000000e+00  -7.0301587906410031e-03 -2.6699594172398502e-02 0.0000000000000000e+00  2.6563611959333163e-03 -2.4500871317854698e-02 0.0000000000000000e+00  9.4006724878196533e-03 -2.4685099750001056e-02 0.0000000000000000e+00  9.1330180908320673e-03 -2.7337296327525070e-02 0.0000000000000000e+00  1.9827151784658336e-02 -1.5510283377891647e-02 0.0000000000000000e+00  3.3037093305880227e-02 -1.2724036235041213e-02 0.0000000000000000e+00  4.3964053131099204e-02 -2.9412644580046714e-03 0.0000000000000000e+00  2.6295185300068458e-02 -4.6489707059861667e+00 0.0000000000000000e+00  -1.1641608444928201e-03 -4.8703882581790108e+00 0.0000000000000000e+00  1.2771233761188929e-02 -4.6452790132688344e+00 0.0000000000000000e+00  0.0000000000000000e+00 0.0000000000000000e+00 0.0000000000000000e+00  0.0000000000000000e+00 0.0000000000000000e+00 0.0000000000000000e+00  1.1535111033894343e-02 -4.6309132817864249e+00 0.0000000000000000e+00  -9.3641964446722990e-03 -4.8540167956430071e+00 0.0000000000000000e+00  3.7271287045814519e-03 -4.6302141145547591e+00 0.0000000000000000e+00  1.1347908131071783e-03 -2.1734376543512454e-04 0.0000000000000000e+00  -4.9600449762763959e-03 -1.3202104878080614e-03 0.0000000000000000e+00  -8.2561953558083004e-03 -1.0207760670420819e-02 0.0000000000000000e+00  -4.7050190089903132e-03 -3.8392599632890032e-02 0.0000000000000000e+00  -1.2169953057428325e-03 -3.8226978474303980e-02 0.0000000000000000e+00  2.7241051187684548e-03 -3.7105898885311718e-02 0.0000000000000000e+00  7.0692491493471853e-03 -3.6666331424446377e-02 0.0000000000000000e+00  1.0083417708736751e-02 -3.5366380124434063e-02 0.0000000000000000e+00  5.8809842455667530e-04 7.5389723107101289e-05 0.0000000000000000e+00  6.5050655223349158e-03 1.0841330314898126e-03 0.0000000000000000e+00  9.7434405756431121e-03 -8.4733030684883408e-04 0.0000000000000000e+00  1.9890396247999896e-02 -4.6438325627703536e+00 0.0000000000000000e+00  -1.3567858362251357e-03 -4.8668403086617342e+00 0.0000000000000000e+00  1.2396007100551450e-02 -4.6410105316207462e+00 0.0000000000000000e+00  0.0000000000000000e+00 0.0000000000000000e+00 0.0000000000000000e+00  0.0000000000000000e+00 0.0000000000000000e+00 0.0000000000000000e+00  1.1761196962082226e-02 -4.6237076308494949e+00 0.0000000000000000e+00  -9.4139940980814373e-03 -4.8470535638641916e+00 0.0000000000000000e+00  4.4173724554372627e-03 -4.6232291950144058e+00 0.0000000000000000e+00  1.6638740052291393e-02 -1.1510614785181204e-02 0.0000000000000000e+00  1.1886161272375588e-02 -1.2257725262253530e-02 0.0000000000000000e+00  7.3510814216076548e-03 -1.2398709656571277e-02 0.0000000000000000e+00  -5.5344603970878216e-03 -4.4248458563331469e-02 0.0000000000000000e+00  -1.9026151564013483e-03 -4.6324642718717064e-02 0.0000000000000000e+00  2.8196240202520984e-03 -4.6803919680711292e-02 0.0000000000000000e+00  7.5470102021441459e-03 -4.6433412103989838e-02 0.0000000000000000e+00  9.3670058977136771e-03 -4.4720044168736393e-02 0.0000000000000000e+00  -1.5524958645528218e-02 9.6585663403445238e-03 0.0000000000000000e+00  -1.1308314709635532e-02 9.2768579386813058e-03 0.0000000000000000e+00  -7.0310557133906630e-03 1.0795146427357042e-02 0.0000000000000000e+00  1.7286664574195983e-02 -4.6389888546317204e+00 0.0000000000000000e+00  -1.3805355886633414e-03 -4.8621884705724394e+00 0.0000000000000000e+00  1.2435976835464203e-02 -4.6358293316881030e+00 0.0000000000000000e+00  0.0000000000000000e+00 0.0000000000000000e+00 0.0000000000000000e+00  0.0000000000000000e+00 0.0000000000000000e+00 0.0000000000000000e+00  1.1717220195151829e-02 -4.6153429307132479e+00 0.0000000000000000e+00  -9.9541143403706067e-03 -4.8390331319193427e+00 0.0000000000000000e+00  3.8425786373118870e-03 -4.6146945782189537e+00 0.0000000000000000e+00  2.4467380052309931e-02 -1.7700307763091162e-02 0.0000000000000000e+00  2.1788918788418921e-02 -1.7448439493919436e-02 0.0000000000000000e+00  2.0175920271672320e-02 -1.8086115915154851e-02 0.0000000000000000e+00  -5.5187735498306145e-03 -5.6801760786862672e-02 0.0000000000000000e+00  -2.8529628419718955e-03 -5.6990207828722113e-02 0.0000000000000000e+00  2.3514648620842037e-03 -5.7448127712938564e-02 0.0000000000000000e+00  7.4367042119096076e-03 -5.7093050121468439e-02 0.0000000000000000e+00  9.0461130836810878e-03 -5.6065503541222472e-02 0.0000000000000000e+00  -2.2744801144897495e-02 1.5644046713705218e-02 0.0000000000000000e+00  -2.0047561701213138e-02 1.5325357012424804e-02 0.0000000000000000e+00  -1.8336091866765054e-02 1.5716881470088855e-02 0.0000000000000000e+00  1.7532159293860757e-02 -4.6309730262586397e+00 0.0000000000000000e+00  4.4864403020068760e-06 -4.8552892658331528e+00 0.0000000000000000e+00  1.3020714156238412e-02 -4.6284450381194171e+00 0.0000000000000000e+00  0.0000000000000000e+00 0.0000000000000000e+00 0.0000000000000000e+00  0.0000000000000000e+00 0.0000000000000000e+00 0.0000000000000000e+00  1.1528152099039495e-02 -4.6058234148351493e+00 0.0000000000000000e+00  -1.0568791799931206e-02 -4.8298835938924229e+00 0.0000000000000000e+00  3.0675628579013565e-03 -4.6046133106718745e+00 0.0000000000000000e+00  2.6761853458886480e-02 -2.0002397711370221e-02 0.0000000000000000e+00  2.5824430542187866e-02 -1.9941865025148130e-02 0.0000000000000000e+00  2.5688804629718051e-02 -2.0584030767543029e-02 0.0000000000000000e+00  -5.9376480753467881e-03 -6.9786173699139947e-02 0.0000000000000000e+00  -3.6500041991684817e-03 -6.8790919477489387e-02 0.0000000000000000e+00  1.7481308062104659e-03 -6.9186175835226058e-02 0.0000000000000000e+00  7.1134645923930772e-03 -6.8801096849354301e-02 0.0000000000000000e+00  9.0161949514524723e-03 -6.8711752497593842e-02 0.0000000000000000e+00  -2.4346135515186922e-02 1.7861686728490807e-02 0.0000000000000000e+00  -2.3454872233642361e-02 1.7515545047438529e-02 0.0000000000000000e+00  -2.3453430261159806e-02 1.7792942705290873e-02 0.0000000000000000e+00  1.8342277659461424e-02 -4.6200633861325224e+00 0.0000000000000000e+00  1.3069208645127134e-03 -4.8456983478968789e+00 0.0000000000000000e+00  1.3672637355727034e-02 -4.6186278453453866e+00 0.0000000000000000e+00  -4.0098942367164451e-11 1.0344159500581660e-10 0.0000000000000000e+00  0.0000000000000000e+00 0.0000000000000000e+00 0.0000000000000000e+00  1.1354378715011777e-02 -4.5957007637701350e+00 0.0000000000000000e+00  -1.0821897860889759e-02 -4.8201499838544883e+00 0.0000000000000000e+00  2.8257560154786492e-03 -4.5937469489863512e+00 0.0000000000000000e+00  2.4985194882660513e-02 -1.9350621746018374e-02 0.0000000000000000e+00  2.5468238978139240e-02 -1.9604741754936400e-02 0.0000000000000000e+00  2.6730714742399238e-02 -2.0387914765810287e-02 0.0000000000000000e+00  -5.9172382645066761e-03 -8.2972676747966059e-02 0.0000000000000000e+00  -3.9912306475766973e-03 -8.0750041961058242e-02 0.0000000000000000e+00  1.2069856531986677e-03 -8.1074820621790847e-02 0.0000000000000000e+00  6.4273469255712789e-03 -8.0667202885339517e-02 0.0000000000000000e+00  8.5678641343708856e-03 -8.1723142318908260e-02 0.0000000000000000e+00  -2.2006059983859416e-02 1.7022989164930089e-02 0.0000000000000000e+00  -2.2548980548194274e-02 1.7034770794563368e-02 0.0000000000000000e+00  -2.3867800047806472e-02 1.7594599694287630e-02 0.0000000000000000e+00  1.9380179844950548e-02 -4.6074236822670107e+00 0.0000000000000000e+00  2.2661623011011453e-03 -4.8342624700041208e+00 0.0000000000000000e+00  1.4234447475465041e-02 -4.6071010815370190e+00 0.0000000000000000e+00  0.0000000000000000e+00 0.0000000000000000e+00 0.0000000000000000e+00  0.0000000000000000e+00 0.0000000000000000e+00 0.0000000000000000e+00  1.1304642517098016e-02 -4.5858891689136376e+00 0.0000000000000000e+00  -1.0476460621046908e-02 -4.8107333313220293e+00 0.0000000000000000e+00  3.4769348322146658e-03 -4.5831939934168719e+00 0.0000000000000000e+00  2.0380099123869903e-02 -1.6366113529298398e-02 0.0000000000000000e+00  2.2030321076018072e-02 -1.7021445103248361e-02 0.0000000000000000e+00  2.4315665256441563e-02 -1.8080735798673624e-02 0.0000000000000000e+00  -5.1625988145433815e-03 -9.4992154650183652e-02 0.0000000000000000e+00  -3.6950294739176871e-03 -9.1739530937215139e-02 0.0000000000000000e+00  7.7932313844797851e-04 -9.2004098784813373e-02 0.0000000000000000e+00  5.3325009264806721e-03 -9.1606257064352492e-02 0.0000000000000000e+00  7.4826817878037230e-03 -9.3809725388423915e-02 0.0000000000000000e+00  -1.6939948077549654e-02 1.3886248758037184e-02 0.0000000000000000e+00  -1.8641533241464701e-02 1.4353484541347564e-02 0.0000000000000000e+00  -2.0987840201206653e-02 1.5220239392019205e-02 0.0000000000000000e+00  2.0031572152030264e-02 -4.5942666403329939e+00 0.0000000000000000e+00  2.6323777390059085e-03 -4.8221313487472122e+00 0.0000000000000000e+00  1.4603435921264516e-02 -4.5949960815083637e+00 0.0000000000000000e+00  0.0000000000000000e+00 0.0000000000000000e+00 0.0000000000000000e+00  0.0000000000000000e+00 0.0000000000000000e+00 0.0000000000000000e+00  1.1431006616773449e-02 -4.5774293494319638e+00 0.0000000000000000e+00  -9.4659759889154649e-03 -4.8026507384975350e+00 0.0000000000000000e+00  5.1158059766780494e-03 -4.5741292268083322e+00 0.0000000000000000e+00  1.3943412830916095e-02 -1.1720183978647910e-02 0.0000000000000000e+00  1.6471938259413815e-02 -1.2753753942055468e-02 0.0000000000000000e+00  1.9446046796323984e-02 -1.4056390112973558e-02 0.0000000000000000e+00  -3.6731602467425621e-03 -1.0457407132033614e-01 0.0000000000000000e+00  -2.8006450252761952e-03 -1.0059441508685618e-01 0.0000000000000000e+00  4.7416822780985254e-04 -1.0083416066380993e-01 0.0000000000000000e+00  3.8661449377829149e-03 -1.0046953783855314e-01 0.0000000000000000e+00  5.7369206851290086e-03 -1.0366578446691184e-01 0.0000000000000000e+00  -1.0156059613647433e-02 9.1158796038326266e-03 0.0000000000000000e+00  -1.2729370117870743e-02 1.0017917843010433e-02 0.0000000000000000e+00  -1.5758904195172934e-02 1.1187732262814479e-02 0.0000000000000000e+00  2.0009921688531798e-02 -4.5819866093737209e+00 0.0000000000000000e+00  2.2879766294229349e-03 -4.8105684027133844e+00 0.0000000000000000e+00  1.4721565219520521e-02 -4.5835737843243765e+00 0.0000000000000000e+00  0.0000000000000000e+00 0.0000000000000000e+00 0.0000000000000000e+00  0.0000000000000000e+00 0.0000000000000000e+00 0.0000000000000000e+00  1.1740637052585601e-02 -4.5712912566972017e+00 0.0000000000000000e+00  -7.8541727383361435e-03 -4.7968414494934937e+00 0.0000000000000000e+00  7.6318149506254792e-03 -4.5676119426780133e+00 0.0000000000000000e+00  6.4697409211409360e-03 -6.0476348688408470e-03 0.0000000000000000e+00  9.5802008038619185e-03 -7.3528683418888135e-03 0.0000000000000000e+00  1.2915008881458188e-02 -8.7936308260168541e-03 0.0000000000000000e+00  -1.5915159152915593e-03 -1.1070236379318951e-01 0.0000000000000000e+00  -1.4255199089523768e-03 -1.0635850607994908e-01 0.0000000000000000e+00  2.9028982758869316e-04 -1.0660536340323234e-01 0.0000000000000000e+00  2.1407157507400405e-03 -1.0628544110319034e-01 0.0000000000000000e+00  3.4704293436386264e-03 -1.1020175671721928e-01 0.0000000000000000e+00  -2.4646286232641061e-03 3.3511799307204058e-03 0.0000000000000000e+00  -5.6109592729144371e-03 4.5889426464813384e-03 0.0000000000000000e+00 