<?xml version="1.0"?>
<VTKFile type="UnstructuredGrid"  version="0.1"  >
<UnstructuredGrid>
<Piece  NumberOfPoints="589" NumberOfCells="1080">
<Points>
<DataArray  type="Float64"  NumberOfComponents="3"  format="ascii">-9 0 0  -8 0 0  -7 0 0  -6 0 0  -5 0 0  -4 0 0  -3 0 0  -2 0 0  -1 0 0  0 0 0  1 0 0  2 0 0  3 0 0  4 0 0  5 0 0  6 0 0  7 0 0  8 0 0  9 0 0  -9 2 0  -7.99999278283174 2.000010062960262 0  -6.999984907769082 2.000018927255113 0  -5.999974839706626 2.000025622245402 0  -4.999959076835744 2.000029730947567 0  -3.999975004163683 2.000022108253888 0  -2.999991436504194 2.000015086166906 0  -1.999999625911754 2.000008581222154 0  -1.000001339210539 2.000003421412265 0  1.021262962368022e-06 2.000001087930049 0  1.000003773130038 2.00000245355407 0  2.00000337939623 2.000007108684616 0  2.999997505323694 2.000012762174929 0  3.999985539312818 2.000018581290505 0  4.999968499102751 2.000020188626668 0  5.999981316021567 2.000019707906785 0  6.999989013561087 2.000015341796171 0  7.999994781820682 2.000008341984712 0  9 2 0  -9.000000000009988 4 0  -7.999988197078373 4.000024921147136 0  -6.999978587529303 4.000046532156968 0  -5.999972458563582 4.000061589874113 0  -4.999969564425967 4.000067003284886 0  -3.999992381614295 4.000063367221033 0  -3.000007810237963 4.000043894162848 0  -2.000012166121903 4.000018612114365 0  -1.00000691778626 3.999998244762682 0  3.580376037183978e-06 3.999989838174244 0  1.000014379533746 3.99999566663897 0  2.000020674581827 4.000011997452362 0  3.000017692700065 4.000034045003525 0  4.000004022525708 4.000055788928059 0  4.999983139995264 4.000061686496007 0  5.999983109475142 4.000054957662812 0  6.999985744146218 4.000041218893061 0  7.999991763785808 4.000022053186737 0  9 4 0  -9 6 0  -7.999974837057198 6.000053022556943 0  -6.999958344887117 6.000100352685218 0  -5.999957138177669 6.000136137051109 0  -4.999973097567946 6.000154783850678 0  -4.000017043082352 6.000125841494254 0  -3.000037122690101 6.000065868871174 0  -2.00002941117189 6.000003106627109 0  -1.000010087585487 5.99996831449351 0  9.287228144098553e-06 5.99996112595828 0  1.00002650264454 5.999971833351638 0  2.000039477970896 6.000001746666863 0  3.000044274927897 6.000052253292059 0  4.000034200670994 6.0001042340587 0  4.999997898761818 6.000128946942912 0  5.999974242077804 6.000118249274402 0  6.999968934223247 6.000088806114104 0  7.999979878535089 6.000047316551498 0  9 6 0  -9 8 0  -7.99992678957078 8.000103905860657 0  -6.999876955832476 8.000200369285091 0  -5.999873151006918 8.00027924719385 0  -4.999934706995822 8.00032379413798 0  -4.000019556405612 8.000191145397613 0  -3.000003362203923 8.000035373024906 0  -1.999971090561815 7.999959963584669 0  -0.9999682496198556 7.999952025848575 0  1.270378593889247e-05 7.999949848188171 0  0.9999980955935142 7.999942420042581 0  2.000003100117632 7.999972494140667 0  3.000038429328149 8.000023869748409 0  4.000049917901209 8.000152070054215 0  4.999968687713448 8.000296665348658 0  5.999891970386141 8.000256539868559 0  6.999887105623854 8.000184591795396 0  7.999931276232072 8.000095897490368 0  9 8 0  -9 10 0  -7.999785173708006 10.00018460844316 0  -6.999611384187125 10.00037080524429 0  -5.99952765904153 10.00055980765898 0  -4.999602164843166 10.00075202104859 0  -3.999737311756814 10.00032258874865 0  -2.999714494926947 9.999953238613928 0  -1.999768537963035 10.00001864074087 0  -0.9998868435510214 10.00003970530745 0  2.663919790949542e-05 10.00004482094384 0  0.9999413213623221 10.00004423858052 0  1.999828604012348 10.00004569263149 0  2.999728282313661 9.999916814614124 0  3.999738978025634 10.00025276478547 0  4.999591068255237 10.00069554027159 0  5.999522164331423 10.00052221558533 0  6.999609058060884 10.00034741503145 0  7.999784411081643 10.00017332435167 0  9 10 0  -9 12 0  -7.99947912447374 12.00025906357887 0  -6.998985087974221 12.00053019774197 0  -5.998548339473643 12.00082783642063 0  -4.998206435806157 12.00117214382218 0  -3.998276710567525 12.00038736709109 0  -2.998214190572086 11.99960971583583 0  -1.998753968439273 11.99970648472567 0  -0.9993578891238667 11.99976074063092 0  1.298109363656371e-05 11.99977467195048 0  0.9993757240447904 11.99974690542599 0  1.998744274623455 11.99966848695384 0  2.99814589913493 11.99951675489237 0  3.998206940988775 12.00031979471429 0  4.998164865885228 12.00112877098337 0  5.998528566515038 12.00079400948722 0  6.998976873765153 12.00050753069014 0  7.999476419841284 12.00024776745481 0  9 12 0  -9 14 0  -7.999065126486119 14.00028535633514 0  -6.998128691061996 14.00058377985997 0  -5.997188017996643 14.00090949305913 0  -4.996237056383774 14.00127896928564 0  -3.996229252613869 14.00035868040688 0  -2.996223886425869 13.99942646744164 0  -1.997483942640832 13.99956460050161 0  -0.9987286148717669 13.99964326840458 0  3.191296134946488e-05 13.99967148881277 0  0.998787676026577 13.99965238747632 0  1.997529179979792 13.99958483313734 0  2.996248688050657 13.99946505338886 0  3.996234909995311 14.00034790304108 0  4.996229966385346 14.0012248153064 0  5.997195225383368 14.00087310123054 0  6.998138966710488 14.00056103889315 0  7.999071816276034 14.00027436600291 0  9 14 0  -9 16 0  -7.998656565092057 16.00025946006668 0  -6.997287909570177 16.00052837159793 0  -5.995866703070856 16.00081634943796 0  -4.994360980641996 16.00113312843072 0  -3.994309719970318 16.00034242880538 0  -2.99435959672505 15.99955590728737 0  -1.996277518619784 15.99966121245471 0  -0.9981210770831059 15.99972809551901 0  6.987893240687611e-05 15.99975804886027 0  0.9982575356335637 15.99975212573024 0  1.996403968148083 15.99971052186999 0  2.994468799359737 15.99963276221089 0  3.994410898656006 16.00036823580763 0  4.994459270250364 16.001104311124 0  5.995945739985156 16.00079386753816 0  6.997343292211809 16.00051318687638 0  7.998685085486827 16.00025184009628 0  9 16 0  -9 18 0  -7.998348026438935 18.00019577822462 0  -6.996655800017731 18.00039677948986 0  -5.994880991467746 18.00060813128397 0  -4.992976990008893 18.00083469505289 0  -3.992898205156883 18.00033735170129 0  -2.992974366579673 17.99984064943605 0  -1.995371183171181 17.99991202863896 0  -0.9976528513552643 17.99996117531298 0  0.0001209397425763683 17.99998864024179 0  0.9978933191114144 17.99999509817133 0  1.995607481389805 17.99998132096647 0  2.993203977203341 17.99994828908078 0  3.993122697249777 18.00038459378393 0  4.993198876644793 18.00081950848974 0  5.995049414266998 18.00059575678653 0  6.996769086953657 18.00038810623704 0  7.998404982864097 18.00019132463223 0  9 18 0  -9 20 0  -7.998199704138445 20.00011118960693 0  -6.996352452294992 20.00022380197648 0  -5.994409476460932 20.00033910478252 0  -4.992318353640874 20.00045803086628 0  -3.992227995377486 20.00033682964029 0  -2.992316820016916 20.00021609304652 0  -1.994928364624884 20.0002521528114 0  -0.9974078717117972 20.00028137050184 0  0.0001775459998887421 20.00030364458635 0  0.9977631609817903 20.00031938128897 0  1.9952843030736 20.00032947881223 0  2.992674026641186 20.00033537033366 0  3.99258396065168 20.0003939074691 0  4.992672152757769 20.00045126473136 0  5.994673982498865 20.00033328594343 0  6.996528419077823 20.0002195688851 0  7.998287582842464 20.00010896811301 0  8.999999999963416 20.0000000000025 0  -9 22 0  -7.998238475431729 22.00002089261541 0  -6.996430451558353 22.00004005458509 0  -5.994527963574017 22.00005558015762 0  -4.992480098668307 22.00006520908898 0  -3.992391785980109 22.00034061890963 0  -2.992479542628874 22.00061627460292 0  -1.995016629873162 22.0006197676321 0  -0.9974239883406067 22.00062947241959 0  0.0002333313591607903 22.00064492919523 0  0.9978922222710478 22.00066633930946 0  1.995489646462006 22.00069455314962 0  2.992960761590327 22.00073108283027 0  3.992874731792591 22.00039787147296 0  4.992961451701988 22.00006360954683 0  5.994885659771166 22.00005376113967 0  6.996667370782419 22.00003855135241 0  7.998356476851046 22.00002005507412 0  9 22 0  -9 24 0  -7.998462504320078 23.99993751585283 0  -6.996884740344811 23.99987084699017 0  -5.99522535500693 23.99979562840088 0  -4.993440769466392 23.99970714298547 0  -3.993365228423059 24.00034700765366 0  -2.993441329933795 24.00098684108666 0  -1.995626630979457 24.00096241759108 0  -0.9977001245641228 24.00095445351289 0  0.0002828883084840996 24.00096228464404 0  0.9982685744822072 24.00098595613699 0  1.996203177200489 24.00102621810507 0  2.994031625014538 24.00108453126715 0  3.993959632508512 24.00039665393992 0  4.994033909380804 23.99970777471558 0  5.995664947702071 23.99979567454078 0  6.997175330876412 23.99987067370105 0  7.99860706251541 23.99993736818147 0  9 24 0  -9 26 0  -7.998846782431305 25.99987089031232 0  -6.997663871852514 25.99973584192057 0  -5.996420885106216 25.99958873541803 0  -4.995085932811985 25.99942310145307 0  -3.995031103712593 26.00035453820868 0  -2.995087455830622 26.0012857698019 0  -1.996686561090302 26.00123897328846 0  -0.9982035078335344 26.0012159940113 0  0.0003218691338791744 26.00121601345172 0  0.9988507251973449 26.00123893602888 0  1.997344296556181 26.00128538752251 0  2.995762991321605 26.00135671736166 0  3.995712484352434 26.00039081283596 0  4.995766286698753 25.99942407366422 0  5.996924467008388 25.9995892059004 0  6.997996446364644 25.99973603121354 0  7.999012129895832 25.99987094731103 0  9 26 0  -9 28 0  -7.999348879447286 27.99982803477173 0  -6.998681562884022 27.99964907486268 0  -5.997981548488341 27.99945594661884 0  -4.997231545060328 27.99924112418647 0  -3.997202516463614 28.00036219822726 0  -2.997233501838467 28.00148297787306 0  -1.998077757629091 28.00141999413438 0  -0.9988773744031411 28.001385268044 0  0.0003470584357888861 28.00137784959394 0  0.9995754628495523 28.00139750979592 0  1.998787842592942 28.0014447396998 0  2.99796385474252 28.00152075097161 0  3.997939794292966 28.00038134037994 0  4.997967938249397 27.9992413384895 0  5.998526296387824 27.9994560011378 0  6.999041172486624
[...]
<PointData  Vectors="f_44-0"> 
<DataArray  type="Float64"  Name="f_44-0"  NumberOfComponents="3" format="ascii">0.0000000000000000e+00 0.0000000000000000e+00 0.0000000000000000e+00  -2.3429323447069033e-08 -1.0419518251593708e+01 0.0000000000000000e+00  9.2628308318484222e-08 -1.1514509435846811e+01 0.0000000000000000e+00  -5.1601800389995516e-09 -1.0760225279143219e+01 0.0000000000000000e+00  0.0000000000000000e+00 0.0000000000000000e+00 0.0000000000000000e+00  0.0000000000000000e+00 0.0000000000000000e+00 0.0000000000000000e+00  0.0000000000000000e+00 0.0000000000000000e+00 0.0000000000000000e+00  0.0000000000000000e+00 0.0000000000000000e+00 0.0000000000000000e+00  0.0000000000000000e+00 0.0000000000000000e+00 0.0000000000000000e+00  0.0000000000000000e+00 0.0000000000000000e+00 0.0000000000000000e+00  0.0000000000000000e+00 0.0000000000000000e+00 0.0000000000000000e+00  0.0000000000000000e+00 0.0000000000000000e+00 0.0000000000000000e+00  0.0000000000000000e+00 0.0000000000000000e+00 0.0000000000000000e+00  0.0000000000000000e+00 0.0000000000000000e+00 0.0000000000000000e+00  0.0000000000000000e+00 0.0000000000000000e+00 0.0000000000000000e+00  -2.6516626506256364e-08 -1.0383508303884946e+01 0.0000000000000000e+00  8.5915664396352258e-08 -1.1481667252337246e+01 0.0000000000000000e+00  -1.1400750186909245e-08 -1.0729249032305702e+01 0.0000000000000000e+00  0.0000000000000000e+00 0.0000000000000000e+00 0.0000000000000000e+00  0.0000000000000000e+00 0.0000000000000000e+00 0.0000000000000000e+00  -2.1107402125716983e-04 -1.0640958771451997e+01 0.0000000000000000e+00  -1.9094355913861768e-02 -1.1486658282527307e+01 0.0000000000000000e+00  -4.5983285179074185e-02 -1.0650351135168663e+01 0.0000000000000000e+00  -1.0069140951786744e-03 7.7546134062857664e-04 0.0000000000000000e+00  -1.3284840021172565e-03 1.2259889070580859e-03 0.0000000000000000e+00  -7.7440505690495290e-04 7.5447819639154880e-04 0.0000000000000000e+00  -6.4205768543700134e-04 2.6065821580196174e-05 0.0000000000000000e+00  -3.6462567361902491e-04 -3.8868709515687405e-04 0.0000000000000000e+00  -8.7814925226698096e-05 -3.3920704747818095e-04 0.0000000000000000e+00  1.9515065774947359e-04 3.8114587977227570e-05 0.0000000000000000e+00  3.7541387214426523e-04 5.6322458512575088e-04 0.0000000000000000e+00  5.5913755685175137e-04 1.3390539114726675e-03 0.0000000000000000e+00  7.6798481400146203e-04 1.5579182504289570e-03 0.0000000000000000e+00  1.1773771033688743e-03 2.4535272542714360e-03 0.0000000000000000e+00  -8.0564715970058820e-04 -1.0610942434869029e+01 0.0000000000000000e+00  -2.0368490034801415e-02 -1.1457996205372018e+01 0.0000000000000000e+00  -4.7900567056645429e-02 -1.0620556321950922e+01 0.0000000000000000e+00  0.0000000000000000e+00 0.0000000000000000e+00 0.0000000000000000e+00  0.0000000000000000e+00 0.0000000000000000e+00 0.0000000000000000e+00  -1.3072882250336636e-02 -1.0651577006690353e+01 0.0000000000000000e+00  -1.5829318409083196e-02 -1.1524677075033106e+01 0.0000000000000000e+00  -3.6988567308804024e-02 -1.0635504875219427e+01 0.0000000000000000e+00  1.6765358606842624e-03 2.7140194984483744e-03 0.0000000000000000e+00  1.7581478803877719e-04 6.9318473075175057e-04 0.0000000000000000e+00  -2.9082797990022234e-04 -1.1183938510675407e-03 0.0000000000000000e+00  -2.5482622951855373e-04 -1.5002865730445649e-03 0.0000000000000000e+00  2.3315471466131066e-04 -7.8912513166790358e-04 0.0000000000000000e+00  5.1109633997760027e-04 -1.9946573529578107e-05 0.0000000000000000e+00  5.1201055402321177e-04 1.9546602791758037e-04 0.0000000000000000e+00  -9.8324757797169730e-05 9.4996566961629578e-04 0.0000000000000000e+00  -2.7289253691029352e-04 1.8351367032186550e-03 0.0000000000000000e+00  -1.6278128496778767e-04 1.4514057974103253e-03 0.0000000000000000e+00  -3.5002411619193769e-05 7.7630408235156699e-04 0.0000000000000000e+00  -1.3280447902294995e-02 -1.0615196416291132e+01 0.0000000000000000e+00  -1.6286961489399118e-02 -1.1489807040148978e+01 0.0000000000000000e+00  -3.7780473739229041e-02 -1.0599922581455498e+01 0.0000000000000000e+00  0.0000000000000000e+00 0.0000000000000000e+00 0.0000000000000000e+00  0.0000000000000000e+00 0.0000000000000000e+00 0.0000000000000000e+00  -9.6887506871107618e-03 -1.0641228354516812e+01 0.0000000000000000e+00  -9.4900606194940409e-03 -1.1525701961779520e+01 0.0000000000000000e+00  -2.6287571122380726e-02 -1.0626035022446118e+01 0.0000000000000000e+00  3.2185383231927299e-03 -8.6958528084916247e-06 0.0000000000000000e+00  1.2384813361452321e-03 -2.9615344765073397e-03 0.0000000000000000e+00  8.9788279633809314e-04 -2.8904492685655550e-03 0.0000000000000000e+00  1.9281424763960763e-03 7.4922180744328660e-04 0.0000000000000000e+00  1.2747202304190131e-03 2.2957507369441468e-03 0.0000000000000000e+00  2.3642649329167986e-04 9.0980664544026643e-04 0.0000000000000000e+00  -5.2956697992419222e-04 2.9843856866324013e-04 0.0000000000000000e+00  -1.7725371125231832e-04 4.7588893837784314e-04 0.0000000000000000e+00  -6.3468665603576334e-04 7.2650931199792366e-04 0.0000000000000000e+00  -1.4971015540308651e-03 3.6017441381189343e-03 0.0000000000000000e+00  -5.8011245165831647e-04 6.2460735321556542e-03 0.0000000000000000e+00  -1.3462268349283298e-02 -1.0607515368650089e+01 0.0000000000000000e+00  -1.4277931761402914e-02 -1.1494488404112317e+01 0.0000000000000000e+00  -3.1517062410262087e-02 -1.0601608262200665e+01 0.0000000000000000e+00  0.0000000000000000e+00 0.0000000000000000e+00 0.0000000000000000e+00  0.0000000000000000e+00 0.0000000000000000e+00 0.0000000000000000e+00  -7.5034310335124225e-03 -1.0644321696027001e+01 0.0000000000000000e+00  -6.0502926339105175e-03 -1.1524303255481440e+01 0.0000000000000000e+00  -2.2219795210886070e-02 -1.0625695829193587e+01 0.0000000000000000e+00  1.1943808655456089e-02 6.2192229458358454e-03 0.0000000000000000e+00  1.2796912436891647e-02 -2.4810436277825451e-04 0.0000000000000000e+00  4.2371134749077891e-03 5.2699154797666735e-03 0.0000000000000000e+00  4.3813374961878078e-03 9.0500789740641848e-03 0.0000000000000000e+00  -2.7741980716417149e-04 4.4680708819578516e-03 0.0000000000000000e+00  -1.9346142272213820e-03 3.6573727465819056e-03 0.0000000000000000e+00  -4.7191745018370160e-03 7.8700991113138177e-03 0.0000000000000000e+00  -4.4282584200894511e-03 1.1840926111574171e-03 0.0000000000000000e+00  -1.5748273556909227e-02 5.8544304089047884e-03 0.0000000000000000e+00  -1.6845503796470006e-02 1.5821032133524190e-02 0.0000000000000000e+00  -1.1401647399675894e-02 1.6583965877822113e-02 0.0000000000000000e+00  -1.1066417759086563e-02 -1.0609866980197349e+01 0.0000000000000000e+00  -8.3323636480213854e-03 -1.1493687376722209e+01 0.0000000000000000e+00  -2.4294828870121112e-02 -1.0604433859035186e+01 0.0000000000000000e+00  0.0000000000000000e+00 0.0000000000000000e+00 0.0000000000000000e+00  0.0000000000000000e+00 0.0000000000000000e+00 0.0000000000000000e+00  -5.3209931774681161e-03 -1.0649026772482053e+01 0.0000000000000000e+00  4.0247370754714898e-03 -1.1527886691210005e+01 0.0000000000000000e+00  -3.0183864210135832e-04 -1.0634337894073090e+01 0.0000000000000000e+00  5.5235863448681879e-02 -9.2423600402295608e-03 0.0000000000000000e+00  4.2068311794767069e-02 -8.6523766600501931e-03 0.0000000000000000e+00  2.4327546641607758e-02 -8.3397063522569082e-03 0.0000000000000000e+00  1.0920761261676033e-03 1.7690490966257386e-02 0.0000000000000000e+00  -5.0193282984270656e-04 7.3074737229972160e-03 0.0000000000000000e+00  -4.3836492019425077e-03 5.3849759332230520e-03 0.0000000000000000e+00  -7.8929707311599755e-03 5.6627127471752595e-03 0.0000000000000000e+00  -8.7690313642810672e-03 6.3056725124960500e-03 0.0000000000000000e+00  -3.5918997465491008e-02 8.1467542196987132e-03 0.0000000000000000e+00  -4.2977634723520078e-02 2.0400345463637590e-02 0.0000000000000000e+00  -4.6840536744409272e-02 2.9620140566525385e-02 0.0000000000000000e+00  -2.1724723309047903e-02 -1.0614853172349761e+01 0.0000000000000000e+00  -9.2670409091798606e-03 -1.1497114751987487e+01 0.0000000000000000e+00  -1.7105358528617734e-02 -1.0609601494279227e+01 0.0000000000000000e+00  0.0000000000000000e+00 0.0000000000000000e+00 0.0000000000000000e+00  0.0000000000000000e+00 0.0000000000000000e+00 0.0000000000000000e+00  -2.5976570702889511e-03 -1.0661802487193277e+01 0.0000000000000000e+00  1.3524353835696475e-02 -1.1539435555480242e+01 0.0000000000000000e+00  1.5842687865036141e-02 -1.0644613886673094e+01 0.0000000000000000e+00  4.9080887899924028e-02 3.2322440002403052e-03 0.0000000000000000e+00  5.6964349902623529e-02 -9.8239902976787943e-03 0.0000000000000000e+00  7.0452962263532801e-02 -3.3904569500113967e-02 0.0000000000000000e+00  2.4521522779916309e-02 3.4301016055644971e-02 0.0000000000000000e+00  6.9493667296696600e-03 3.4069403278473548e-02 0.0000000000000000e+00  -5.3340638402433194e-03 3.4278753676608910e-02 0.0000000000000000e+00  -1.5488530570870161e-02 3.1886924979758757e-02 0.0000000000000000e+00  -2.3486406682593237e-02 2.7210809688844068e-02 0.0000000000000000e+00  -4.1545601329578588e-02 6.9229617059782455e-03 0.0000000000000000e+00  -5.2509153098102966e-02 1.5239902493522906e-02 0.0000000000000000e+00  -6.2873121617856700e-02 1.7414245333862530e-02 0.0000000000000000e+00  -3.6708462337726372e-02 -1.0619173880602572e+01 0.0000000000000000e+00  -1.4685255291790317e-02 -1.1509228119889823e+01 0.0000000000000000e+00  -1.4516953587271331e-02 -1.0622205924737132e+01 0.0000000000000000e+00  0.0000000000000000e+00 0.0000000000000000e+00 0.0000000000000000e+00  0.0000000000000000e+00 0.0000000000000000e+00 0.0000000000000000e+00  1.4310058031232812e-03 -1.0686569382432795e+01 0.0000000000000000e+00  2.4846202104075527e-02 -1.1563341759836225e+01 0.0000000000000000e+00  3.5948803682790943e-02 -1.0670106214721811e+01 0.0000000000000000e+00  4.7160409650067327e-02 1.6418987859128688e-02 0.0000000000000000e+00  5.2755617072233238e-02 5.7304424389619576e-03 0.0000000000000000e+00  5.5744980810042595e-02 2.0266243219007880e-03 0.0000000000000000e+00  4.5575386054785581e-02 6.6510533546673259e-02 0.0000000000000000e+00  2.0632657327325509e-02 6.9198739925662126e-02 0.0000000000000000e+00  -2.4278412844761814e-03 7.0734203873284329e-02 0.0000000000000000e+00  -2.3914424505525785e-02 6.8732821604688105e-02 0.0000000000000000e+00  -4.2695199989567598e-02 6.4905600284797471e-02 0.0000000000000000e+00  -5.0204183764439525e-02 -7.7812222808523830e-03 0.0000000000000000e+00  -5.5644958420170983e-02 3.3887724052743210e-03 0.0000000000000000e+00  -5.8654536736834427e-02 1.7077038368252303e-02 0.0000000000000000e+00  -5.4051383346038213e-02 -1.0644515182334350e+01 0.0000000000000000e+00  -2.3587118328248308e-02 -1.1533721436144548e+01 0.0000000000000000e+00  -1.5832347983346845e-02 -1.0648598208282021e+01 0.0000000000000000e+00  0.0000000000000000e+00 0.0000000000000000e+00 0.0000000000000000e+00  0.0000000000000000e+00 0.0000000000000000e+00 0.0000000000000000e+00  6.1568783902670177e-03 -1.0725288632779948e+01 0.0000000000000000e+00  3.6600730657471325e-02 -1.1601869087797672e+01 0.0000000000000000e+00  5.4830818578661268e-02 -1.0711269954069973e+01 0.0000000000000000e+00  5.6859517391947667e-02 2.4807126190165861e-02 0.0000000000000000e+00  6.1804902647731808e-02 1.5522334397566454e-02 0.0000000000000000e+00  6.5222753818778151e-02 5.7323954906924237e-03 0.0000000000000000e+00  5.9495774123035458e-02 1.2208685396376619e-01 0.0000000000000000e+00  2.7918638095841598e-02 1.2302655522677432e-01 0.0000000000000000e+00  -2.7866097513241320e-03 1.2384881761718132e-01 0.0000000000000000e+00  -3.2956352092024042e-02 1.2182990060801072e-01 0.0000000000000000e+00  -6.3042854839200982e-02 1.1925533455199633e-01 0.0000000000000000e+00  -6.0592117704920588e-02 -1.4142694444547707e-02 0.0000000000000000e+00  -6.5055298916060683e-02 -3.5232121981611745e-03 0.0000000000000000e+00  -6.8218492441508571e-02 5.4013088028744315e-03 0.0000000000000000e+00  -7.0360591767664071e-02 -1.0686948291818664e+01 0.0000000000000000e+00  -3.4244876336192873e-02 -1.1574567500798020e+01 0.0000000000000000e+00  -1.7808395258262628e-02 -1.0689550934626702e+01 0.0000000000000000e+00  0.0000000000000000e+00 0.0000000000000000e+00 0.0000000000000000e+00  0.0000000000000000e+00 0.0000000000000000e+00 0.0000000000000000e+00  1.0438142653385440e-02 -1.0776468606724121e+01 0.0000000000000000e+00  4.6390273234222436e-02 -1.1653297157622873e+01 0.0000000000000000e+00  6.9371682610805827e-02 -1.0766343102409691e+01 0.0000000000000000e+00  6.7091464847857690e-02 2.6557325409278128e-02 0.0000000000000000e+00  7.0507673752658304e-02 2.0190513829533633e-02 0.0000000000000000e+00  7.0921858809914598e-02 1.4635610277417331e-02 0.0000000000000000e+00  7.2020736024918264e-02 1.9022326577447626e-01 0.0000000000000000e+00  3.4377514774672241e-02 1.8960454923487677e-01 0.0000000000000000e+00  -3.0755520327295648e-03 1.9079039911215331e-01 0.0000000000000000e+00  -4.0118805465524654e-02 1.8980783782935173e-01 0.0000000000000000e+00  -7.7267765393636043e-02 1.9025337833971243e-01 0.0000000000000000e+00  -7.2440399523876722e-02 -1.5243137883186752e-02 0.0000000000000000e+00  -7.5857331896150251e-02 -8.5441982212446348e-03 0.0000000000000000e+00  -7.6351876248731965e-02 -2.4990568571677421e-03 0.0000000000000000e+00  -8.4820855402047493e-02 -1.0745338173474792e+01 0.0000000000000000e+00  -4.5079418713725658e-02 -1.1628997342202560e+01 0.0000000000000000e+00  -2.1221078921497376e-02 -1.0743205616908998e+01 0.0000000000000000e+00  0.0000000000000000e+00 0.0000000000000000e+00 0.0000000000000000e+00  0.0000000000000000e+00 0.0000000000000000e+00 0.0000000000000000e+00  1.3278823455199649e-02 -1.0835778822680771e+01 0.0000000000000000e+00  5.2130636022627796e-02 -1.1713007399381333e+01 0.0000000000000000e+00  7.6775628027614812e-02 -1.0830182017972239e+01 0.0000000000000000e+00  7.2832719565584292e-02 2.3754484355648108e-02 0.0000000000000000e+00  7.4824436194628738e-02 2.2473196842567583e-02 0.0000000000000000e+00  7.3751676111354220e-02 2.1831253286693511e-02 0.0000000000000000e+00  7.6779674238588738e-02 2.7190661452225862e-01 0.0000000000000000e+00  3.6962239926797008e-02 2.6751430837065782e-01 0.0000000000000000e+00  -3.3633306822860470e-03 2.6746688440767546e-01 0.0000000000000000e+00  -4.3483239914594386e-02 2.6750203471387152e-01 0.0000000000000000e+00  -8.4356470534068584e-02 2.7180008953471418e-01 0.0000000000000000e+00  -7.9713970647411411e-02 -1.1954435691393969e-02 0.0000000000000000e+00  -8.1656863275288594e-02 -1.0215820552282305e-02 0.0000000000000000e+00  -8.0446222381915164e-02 -9.0435563870971264e-03 0.0000000000000000e+00  -9.2356362379668461e-02 -1.0813540520666429e+01 0.0000000000000000e+00  -5.2772190250575536e-02 -1.1692383504502740e+01 0.0000000000000000e+00  -2.5166551755994925e-02 -1.0805245800491489e+01 0.0000000000000000e+00  -7.6972717945368687e-11 1.8756356981853377e-10 0.0000000000000000e+00  0.0000000000000000e+00 0.0000000000000000e+00 0.0000000000000000e+00  1.4048169438089739e-02 -1.0897207293216420e+01 0.0000000000000000e+00  5.2571245692479111e-02 -1.1774790439941249e+01 0.0000000000000000e+00  7.5499906076358869e-02 -1.0895960982929562e+01 0.0000000000000000e+00  7.1490466978714015e-02 1.8075246032628649e-02 0.0000000000000000e+00  7.2177298105254639e-02 2.2263618387115984e-02 0.0000000000000000e+00  6.9870613337986165e-02 2.6931300277814440e-02 0.0000000000000000e+00  7.3422703623093999e-02 3.5510266363477727e-01 0.0000000000000000e+00  3.5459194656908229e-02 3.4692366907187305e-01 0.0000000000000000e+00  -3.5492974749450497e-03 3.4590638500340137e-01 0.0000000000000000e+00  -4.2547003686360864e-02 3.4703796475618193e-01 0.0000000000000000e+00  -8.2922977297763725e-02 3.5534242060074073e-01 0.0000000000000000e+00  -7.9617337881486533e-02 -5.7653506013181800e-03 0.0000000000000000e+00  -8.0258023841909970e-02 -9.5904292491066859e-03 0.0000000000000000e+00  -7.7882327185534131e-02 -1.3906704713679659e-02 0.0000000000000000e+00  -9.1499848956607510e-02 -1.0884774903900341e+01 0.0000000000000000e+00  -5.5205949158861074e-02 -1.1758360087314644e+01 0.0000000000000000e+00  -2.8065562054595816e-02 -1.0869877876332614e+01 0.0000000000000000e+00  0.0000000000000000e+00 0.0000000000000000e+00 0.0000000000000000e+00  0.0000000000000000e+00 0.0000000000000000e+00 0.0000000000000000e+00  1.2507637942644164e-02 -1.0954145447993223e+01 0.0000000000000000e+00  4.7379828347693873e-02 -1.1831952388962476e+01 0.0000000000000000e+00  6.5379203595612986e-02 -1.0956476777437754e+01 0.0000000000000000e+00  6.2212199803451676e-02 1.0763163906971317e-02 0.0000000000000000e+00  6.1684576624208280e-02 2.0078526291202149e-02 0.0000000000000000e+00  5.8622789641094922e-02 2.9757589895445212e-02 0.0000000000000000e+00  6.1840256972945644e-02 4.3166111056204481e-01 0.0000000000000000e+00  2.9831276630232054e-02 4.1982950739335995e-01 0.0000000000000000e+00  -3.6918266666388080e-03 4.1780114493856424e-01 0.0000000000000000e+00  -3.7358175537646102e-02 4.1989721885583314e-01 0.0000000000000000e+00  -7.2893943851231796e-02 4.3197107287139019e-01 0.0000000000000000e+00  -7.1311034821935196e-02 1.9448928407456369e-03 0.0000000000000000e+00  -7.0766873935043773e-02 -7.1020811295641542e-03 0.0000000000000000e+00  -6.7645538287718784e-02 -1.6504233267471947e-02 0.0000000000000000e+00  -8.1958569088266528e-02 -1.0951431130485515e+01 0.0000000000000000e+00  -5.1652936672550644e-02 -1.1820020617730503e+01 0.0000000000000000e+00  -2.8738999738371677e-02 -1.0930555442410910e+01 0.0000000000000000e+00  0.0000000000000000e+00 0.0000000000000000e+00 0.0000000000000000e+00  0.0000000000000000e+00 0.0000000000000000e+00 0.0000000000000000e+00  8.7652726007340729e-03 -1.1000333167360315e+01 0.0000000000000000e+00  3.7018879441669421e-02 -1.1878215348908677e+01 0.0000000000000000e+00  4.7423100571509551e-02 -1.1005058722029350e+01 0.0000000000000000e+00  4.5614524226631294e-02 2.9516666948179206e-03 0.0000000000000000e+00  4.4027962759090683e-02 1.6406652452646390e-02 0.0000000000000000e+00  4.0615639904133652e-02 3.0102851107472104e-02 0.0000000000000000e+00  4.3226413960176367e-02 4.9308186011917193e-01 0.0000000000000000e+00  2.0650491316734926e-02 4.7825333395195962e-01 0.0000000000000000e+00  -3.7898145988162968e-03 4.7539661616780243e-01 0.0000000000000000e+00  -2.8480254957876254e-02 4.7825851856912416e-01 0.0000000000000000e+00  -5.5411008247044570e-02 4.9343567485293632e-01 0.0000000000000000e+00  -5.5401250605619380e-02 1.0036226368306264e-02 0.0000000000000000e+00  -5.3827184843796366e-02 -3.2426566014659357e-03 0.0000000000000000e+00  -5.0384659943127880e-02 -1.6756620059674925e-02 0.0000000000000000e+00  -6.4649623216626873e-02 -1.1006481561604398e+01 0.0000000000000000e+00  -4.2420930057101104e-02 -1.1870911779515286e+01 0.0000000000000000e+00  -2.6713258025436518e-02 -1.0980951878270730e+01 0.0000000000000000e+00  0.0000000000000000e+00 0.0000000000000000e+00 0.0000000000000000e+00  0.0000000000000000e+00 0.0000000000000000e+00 0.0000000000000000e+00  3.2093348845064189e-03 -1.1030627373200952e+01 0.0000000000000000e+00  2.2575791284162223e-02 -1.1908448940553233e+01 0.0000000000000000e+00  2.3552497969223860e-02 -1.1036319232060920e+01 0.0000000000000000e+00  2.3442756918172689e-02 -4.4118182409010097e-03 0.0000000000000000e+00  2.0994227853357538e-02 1.1725530535518074e-02 0.0000000000000000e+00  1.7595984282456310e-02 2.7984652720991446e-02 0.0000000000000000e+00  1.9565057035495419e-02 5.3275879681984006e-01 0.0000000000000000e+00  8.9124869721360443e-03 5.1591522225339514e-01 0.0000000000000000e+00  -3.8418103006387962e-03 5.1250636197792376e-01 0.0000000000000000e+00  -1.6903981212213860e-02 5.1585371979147288e-01 0.0000000000000000e+00  -3.2417285622118187e-02 5.3311825461329221e-01 0.0000000000000000e+00  -3.3627958601249348e-02 1.7555709007650879e-02 0.0000000000000000e+00  -3.1217493549974377e-02 1.4961240328405484e-03 0.0000000000000000e+00  -2.7818671476832056e-02 -1