<?xml version="1.0"?>
<VTKFile type="UnstructuredGrid"  version="0.1"  >
<UnstructuredGrid>
<Piece  NumberOfPoints="589" NumberOfCells="1080">
<Points>
<DataArray  type="Float64"  NumberOfComponents="3"  format="ascii">-9 0 0  -8 0 0  -7 0 0  -6 0 0  -5 0 0  -4 0 0  -3 0 0  -2 0 0  -1 0 0  0 0 0  1 0 0  2 0 0  3 0 0  4 0 0  5 0 0  6 0 0  7 0 0  8 0 0  9 0 0  -9 2 0  -8 2 0  -7 2 0  -6 2 0  -5 2 0  -4 2 0  -3 2 0  -2 2 0  -1 2 0  0 2 0  1 2 0  2 2 0  3 2 0  4 2 0  5 2 0  6 2 0  7 2 0  8 2 0  9 2 0  -9 4 0  -8 4 0  -7 4 0  -6 4 0  -5 4 0  -4 4 0  -3 4 0  -2 4 0  -1 4 0  0 4 0  1 4 0  2 4 0  3 4 0  4 4 0  5 4 0  6 4 0  7 4 0  8 4 0  9 4 0  -9 6 0  -8 6 0  -7 6 0  -6 6 0  -5 6 0  -4 6 0  -3 6 0  -2 6 0  -1 6 0  0 6 0  1 6 0  2 6 0  3 6 0  4 6 0  5 6 0  6 6 0  7 6 0  8 6 0  9 6 0  -9 8 0  -8 8 0  -7 8 0  -6 8 0  -5 8 0  -4 8 0  -3 8 0  -2 8 0  -1 8 0  0 8 0  1 8 0  2 8 0  3 8 0  4 8 0  5 8 0  6 8 0  7 8 0  8 8 0  9 8 0  -9 10 0  -8 10 0  -7 10 0  -6 10 0  -5 10 0  -4 10 0  -3 10 0  -2 10 0  -1 10 0  0 10 0  1 10 0  2 10 0  3 10 0  4 10 0  5 10 0  6 10 0  7 10 0  8 10 0  9 10 0  -9 12 0  -8 12 0  -7 12 0  -6 12 0  -5 12 0  -4 12 0  -3 12 0  -2 12 0  -1 12 0  0 12 0  1 12 0  2 12 0  3 12 0  4 12 0  5 12 0  6 12 0  7 12 0  8 12 0  9 12 0  -9 14 0  -8 14 0  -7 14 0  -6 14 0  -5 14 0  -4 14 0  -3 14 0  -2 14 0  -1 14 0  0 14 0  1 14 0  2 14 0  3 14 0  4 14 0  5 14 0  6 14 0  7 14 0  8 14 0  9 14 0  -9 16 0  -8 16 0  -7 16 0  -6 16 0  -5 16 0  -4 16 0  -3 16 0  -2 16 0  -1 16 0  0 16 0  1 16 0  2 16 0  3 16 0  4 16 0  5 16 0  6 16 0  7 16 0  8 16 0  9 16 0  -9 18 0  -8 18 0  -7 18 0  -6 18 0  -5 18 0  -4 18 0  -3 18 0  -2 18 0  -1 18 0  0 18 0  1 18 0  2 18 0  3 18 0  4 18 0  5 18 0  6 18 0  7 18 0  8 18 0  9 18 0  -9 20 0  -8 20 0  -7 20 0  -6 20 0  -5 20 0  -4 20 0  -3 20 0  -2 20 0  -1 20 0  0 20 0  1 20 0  2 20 0  3 20 0  4 20 0  5 20 0  6 20 0  7 20 0  8 20 0  9 20 0  -9 22 0  -8 22 0  -7 22 0  -6 22 0  -5 22 0  -4 22 0  -3 22 0  -2 22 0  -1 22 0  0 22 0  1 22 0  2 22 0  3 22 0  4 22 0  5 22 0  6 22 0  7 22 0  8 22 0  9 22 0  -9 24 0  -8 24 0  -7 24 0  -6 24 0  -5 24 0  -4 24 0  -3 24 0  -2 24 0  -1 24 0  0 24 0  1 24 0  2 24 0  3 24 0  4 24 0  5 24 0  6 24 0  7 24 0  8 24 0  9 24 0  -9 26 0  -8 26 0  -7 26 0  -6 26 0  -5 26 0  -4 26 0  -3 26 0  -2 26 0  -1 26 0  0 26 0  1 26 0  2 26 0  3 26 0  4 26 0  5 26 0  6 26 0  7 26 0  8 26 0  9 26 0  -9 28 0  -8 28 0  -7 28 0  -6 28 0  -5 28 0  -4 28 0  -3 28 0  -2 28 0  -1 28 0  0 28 0  1 28 0  2 28 0  3 28 0  4 28 0  5 28 0  6 28 0  7 28 0  8 28 0  9 28 0  -9 30 0  -8 30 0  -7 30 0  -6 30 0  -5 30 0  -4 30 0  -3 30 0  -2 30 0  -1 30 0  0 30 0  1 30 0  2 30 0  3 30 0  4 30 0  5 30 0  6 30 0  7 30 0  8 30 0  9 30 0  -9 32 0  -8 32 0  -7 32 0  -6 32 0  -5 32 0  -4 32 0  -3 32 0  -2 32 0  -1 32 0  0 32 0  1 32 0  2 32 0  3 32 0  4 32 0  5 32 0  6 32 0  7 32 0  8 32 0  9 32 0  -9 34 0  -8 34 0  -7 34 0  -6 34 0  -5 34 0  -4 34 0  -3 34 0  -2 34 0  -1 34 0  0 34 0  1 34 0  2 34 0  3 34 0  4 34 0  5 34 0  6 34 0  7 34 0  8 34 0  9 34 0  -9 36 0  -8 36 0  -7 36 0  -6 36 0  -5 36 0  -4 36 0  -3 36 0  -2 36 0  -1 36 0  0 36 0  1 36 0  2 36 0  3 36 0  4 36 0  5 36 0  6 36 0  7 36 0  8 36 0  9 36 0  -9 38 0  -8 38 0  -7 38 0  -6 38 0  -5 38 0  -4 38 0  -3 38 0  -2 38 0  -1 38 0  0 38 0  1 38 0  2 38 0  3 38 0  4 38 0  5 38 0  6 38 0  7 38 0  8 38 0  9 38 0  -9 40 0  -8 40 0  -7 40 0  -6 40 0  -5 40 0  -4 40 0  -3 40 0  -2 40 0  -1 40 0  0 40 0  1 40 0  2 40 0  3 40 0  4 40 0  5 40 0  6 40 0  7 40 0  8 40 0  9 40 0  -9 42 0  -8 42 0  -7 42 0  -6 42 0  -5 42 0  -4 42 0  -3 42 0  -2 42 0  -1 42 0  0 42 0  1 42 0  2 42 0  3 42 0  4 42 0  5 42 0  6 42 0  7 42 0  8 42 0  9 42 0  -9 44 0  -8 44 0  -7 44 0  -6 44 0  -5 44 0  -4 44 0  -3 44 0  -2 44 0  -1 44 0  0 44 0  1 44 0  2 44 0  3 44 0  4 44 0  5 44 0  6 44 0  7 44 0  8 44 0  9 44 0  -9 46 0  -8 46 0  -7 46 0  -6 46 0  -5 46 0  -4 46 0  -3 46 0  -2 46 0  -1 46 0  0 46 0  1 46 0  2 46 0  3 46 0  4 46 0  5 46 0  6 46 0  7 46 0  8 46 0  9 46 0  -9 48 0  -8 48 0  -7 48 0  -6 48 0  -5 48 0  -4 48 0  -3 48 0  -2 48 0  -1 48 0  0 48 0  1 48 0  2 48 0  3 48 0  4 48 0  5 48 0  6 48 0  7 48 0  8 48 0  9 48 0  -9 50 0  -8 50 0  -7 50 0  -6 50 0  -5 50 0  -4 50 0  -3 50 0  -2 50 0  -1 50 0  0 50 0  1 50 0  2 50 0  3 50 0  4 50 0  5 50 0  6 50 0  7 50 0  8 50 0  9 50 0  -9 52 0  -8 52 0  -7 52 0  -6 52 0  -5 52 0  -4 52 0  -3 52 0  -2 52 0  -1 52 0  0 52 0  1 52 0  2 52 0  3 52 0  4 52 0  5 52 0  6 52 0  7 52 0  8 52 0  9 52 0  -9 54 0  -8 54 0  -7 54 0  -6 54 0  -5 54 0  -4 54 0  -3 54 0  -2 54 0  -1 54 0  0 54 0  1 54 0  2 54 0  3 54 0  4 54 0  5 54 0  6 54 0  7 54 0  8 54 0  9 54 0  -9 56 0  -8 56 0  -7 56 0  -6 56 0  -5 56 0  -4 56 0  -3 56 0  -2 56 0  -1 56 0  0 56 0  1 56 0  2 56 0  3 56 0  4 56 0  5 56 0  6 56 0  7 56 0  8 56 0  9 56 0  -9 58 0  -8 58 0  -7 58 0  -6 58 0  -5 58 0  -4 58 0  -3 58 0  -2 58 0  -1 58 0  0 58 0  1 58 0  2 58 0  3 58 0  4 58 0  5 58 0  6 58 0  7 58 0  8 58 0  9 58 0  -9 60 0  -8 60 0  -7 60 0  -6 60 0  -5 60 0  -4 60 0  -3 60 0  -2 60 0  -1 60 0  0 60 0  1 60 0  2 60 0  3 60 0  4 60 0  5 60 0  6 60 0  7 60 0  8 60 0  9 60 0  </DataArray>
</Points>
<Cells>
[...]
<PointData  Vectors="f_44-0"> 
<DataArray  type="Float64"  Name="f_44-0"  NumberOfComponents="3" format="ascii">0.0000000000000000e+00 0.0000000000000000e+00 0.0000000000000000e+00  -3.3635569715916756e-11 -9.9546423701405851e-06 0.0000000000000000e+00  -5.6467729120952392e-11 -9.6910657616949508e-06 0.0000000000000000e+00  -7.9236154744752768e-11 -6.7118738827890484e-06 0.0000000000000000e+00  0.0000000000000000e+00 0.0000000000000000e+00 0.0000000000000000e+00  0.0000000000000000e+00 0.0000000000000000e+00 0.0000000000000000e+00  0.0000000000000000e+00 0.0000000000000000e+00 0.0000000000000000e+00  0.0000000000000000e+00 0.0000000000000000e+00 0.0000000000000000e+00  0.0000000000000000e+00 0.0000000000000000e+00 0.0000000000000000e+00  0.0000000000000000e+00 0.0000000000000000e+00 0.0000000000000000e+00  0.0000000000000000e+00 0.0000000000000000e+00 0.0000000000000000e+00  0.0000000000000000e+00 0.0000000000000000e+00 0.0000000000000000e+00  0.0000000000000000e+00 0.0000000000000000e+00 0.0000000000000000e+00  0.0000000000000000e+00 0.0000000000000000e+00 0.0000000000000000e+00  0.0000000000000000e+00 0.0000000000000000e+00 0.0000000000000000e+00  3.3075871284038641e-11 -1.0332184730823453e-05 0.0000000000000000e+00  2.3069082053634867e-11 -9.7569333635850030e-06 0.0000000000000000e+00  -2.0339806222615432e-12 -6.6096395202520478e-06 0.0000000000000000e+00  0.0000000000000000e+00 0.0000000000000000e+00 0.0000000000000000e+00  0.0000000000000000e+00 0.0000000000000000e+00 0.0000000000000000e+00  -1.3359781805728262e-07 -7.9016525376539427e-06 0.0000000000000000e+00  -2.2511523382785510e-07 -9.4942149352400696e-06 0.0000000000000000e+00  -4.0092232020009742e-07 -8.1534075160453089e-06 0.0000000000000000e+00  -9.0496767403883865e-07 -5.0986143601887651e-07 0.0000000000000000e+00  -7.1529616973371882e-07 -3.7454820408895273e-07 0.0000000000000000e+00  -4.8815925629450409e-07 -3.1537021209211909e-07 0.0000000000000000e+00  -3.0638678383858428e-07 -2.8494327802100402e-07 0.0000000000000000e+00  -1.5071741216211718e-07 -2.6708050438795709e-07 0.0000000000000000e+00  -8.0669801386011069e-09 -2.6054918267008002e-07 0.0000000000000000e+00  1.3273909651430050e-07 -2.6524382454239179e-07 0.0000000000000000e+00  2.8211653541478035e-07 -2.8130702191589589e-07 0.0000000000000000e+00  4.5039060867792502e-07 -3.1000841930325319e-07 0.0000000000000000e+00  6.4887210016073473e-07 -3.5845338217655928e-07 0.0000000000000000e+00  8.8601921084907671e-07 -4.7252631306180744e-07 0.0000000000000000e+00  4.0643056813614156e-07 -8.0765354954073400e-06 0.0000000000000000e+00  2.7774417753806615e-07 -9.4853305219615219e-06 0.0000000000000000e+00  1.6599906759014364e-07 -7.9215222873667207e-06 0.0000000000000000e+00  0.0000000000000000e+00 0.0000000000000000e+00 0.0000000000000000e+00  0.0000000000000000e+00 0.0000000000000000e+00 0.0000000000000000e+00  -1.7632751127943576e-07 -7.5767025883312546e-06 0.0000000000000000e+00  -3.6696318076103670e-07 -9.0605713700780374e-06 0.0000000000000000e+00  -5.6931484626510962e-07 -7.9304025240982446e-06 0.0000000000000000e+00  -8.9339782176546063e-07 -8.2832771746472837e-07 0.0000000000000000e+00  -7.2206783078780059e-07 -8.3244294172025581e-07 0.0000000000000000e+00  -5.4947643000667519e-07 -7.8459304068486682e-07 0.0000000000000000e+00  -3.6803665796841637e-07 -7.3031944572708285e-07 0.0000000000000000e+00  -1.8967517475322728e-07 -6.9263876002242397e-07 0.0000000000000000e+00  -1.5373824542602714e-08 -6.7829457235253462e-07 0.0000000000000000e+00  1.5878924606446069e-07 -6.8827282412097932e-07 0.0000000000000000e+00  3.3810237702113414e-07 -7.2040779569312751e-07 0.0000000000000000e+00  5.2371401104765700e-07 -7.6783359350069523e-07 0.0000000000000000e+00  7.0956952584235991e-07 -8.1518464264238929e-07 0.0000000000000000e+00  8.6813385951165872e-07 -8.2016540505284339e-07 0.0000000000000000e+00  6.1260278128627130e-07 -7.7485026775619639e-06 0.0000000000000000e+00  3.7911759374310584e-07 -9.0487902587485227e-06 0.0000000000000000e+00  1.9428499342908558e-07 -7.6966710633231203e-06 0.0000000000000000e+00  0.0000000000000000e+00 0.0000000000000000e+00 0.0000000000000000e+00  0.0000000000000000e+00 0.0000000000000000e+00 0.0000000000000000e+00  -1.7791566674796185e-07 -7.2908853196937502e-06 0.0000000000000000e+00  -3.7662303932659452e-07 -8.6673159189493464e-06 0.0000000000000000e+00  -5.6039074073359283e-07 -7.6630081504971510e-06 0.0000000000000000e+00  -7.2700131422316162e-07 -1.2112077593960640e-06 0.0000000000000000e+00  -5.7093329730130157e-07 -1.2291454415840176e-06 0.0000000000000000e+00  -4.2805395328927490e-07 -1.1890622790365394e-06 0.0000000000000000e+00  -2.9374847903279805e-07 -1.1353583895278537e-06 0.0000000000000000e+00  -1.5799225894130264e-07 -1.0981728516262437e-06 0.0000000000000000e+00  -1.7026713868971556e-08 -1.0844725126681540e-06 0.0000000000000000e+00  1.2670591607240669e-07 -1.0952743391381277e-06 0.0000000000000000e+00  2.7006601086821879e-07 -1.1286886459787731e-06 0.0000000000000000e+00  4.1005304853799106e-07 -1.1770888979159242e-06 0.0000000000000000e+00  5.5132006929460883e-07 -1.2177206656839837e-06 0.0000000000000000e+00  6.9536427531373068e-07 -1.2009887432759226e-06 0.0000000000000000e+00  5.9394941545766677e-07 -7.4912553268294152e-06 0.0000000000000000e+00  3.9309185374214928e-07 -8.6411019259927102e-06 0.0000000000000000e+00  1.9357534595115182e-07 -7.3701628161205912e-06 0.0000000000000000e+00  0.0000000000000000e+00 0.0000000000000000e+00 0.0000000000000000e+00  0.0000000000000000e+00 0.0000000000000000e+00 0.0000000000000000e+00  -1.9963279212208372e-07 -6.9659977361944603e-06 0.0000000000000000e+00  -4.1131254419674395e-07 -8.3117739153277587e-06 0.0000000000000000e+00  -5.8159613818252611e-07 -7.4487414902051394e-06 0.0000000000000000e+00  -6.2205113655184422e-07 -1.6497377732038164e-06 0.0000000000000000e+00  -4.7047971874841878e-07 -1.5946853900117324e-06 0.0000000000000000e+00  -3.6619275712769495e-07 -1.5135809767049472e-06 0.0000000000000000e+00  -2.7448814034525391e-07 -1.4657248460364334e-06 0.0000000000000000e+00  -1.5181469082374701e-07 -1.4491969184748749e-06 0.0000000000000000e+00  -1.4315891445451852e-08 -1.4443006259677905e-06 0.0000000000000000e+00  1.2111750047759627e-07 -1.4461414099257689e-06 0.0000000000000000e+00  2.3419558594317960e-07 -1.4615844936994930e-06 0.0000000000000000e+00  3.3838868474321185e-07 -1.5064022413902995e-06 0.0000000000000000e+00  4.4883192657506261e-07 -1.5851204910287824e-06 0.0000000000000000e+00  5.9835892348009767e-07 -1.6452273478753579e-06 0.0000000000000000e+00  5.7746899216872562e-07 -7.2797493181590460e-06 0.0000000000000000e+00  3.9651356821772968e-07 -8.2834699277434606e-06 0.0000000000000000e+00  1.9588875883625393e-07 -7.0437664214584603e-06 0.0000000000000000e+00  0.0000000000000000e+00 0.0000000000000000e+00 0.0000000000000000e+00  0.0000000000000000e+00 0.0000000000000000e+00 0.0000000000000000e+00  -2.4240700122207625e-07 -6.5882056844817269e-06 0.0000000000000000e+00  -5.0678261262514334e-07 -7.8984889294393982e-06 0.0000000000000000e+00  -7.5353323415998602e-07 -7.1736627469829908e-06 0.0000000000000000e+00  -8.3313082304840403e-07 -2.1023804060245761e-06 0.0000000000000000e+00  -7.3087377806587844e-07 -1.9432720856049471e-06 0.0000000000000000e+00  -6.2432161401721451e-07 -1.7972477609168697e-06 0.0000000000000000e+00  -4.1138912634475118e-07 -1.8411348178616555e-06 0.0000000000000000e+00  -2.0518923902405200e-07 -1.8417744210334935e-06 0.0000000000000000e+00  -1.9668799841863754e-08 -1.8435111363844201e-06 0.0000000000000000e+00  1.6449285095904652e-07 -1.8431201415277300e-06 0.0000000000000000e+00  3.6582146328149715e-07 -1.8464512940546825e-06 0.0000000000000000e+00  5.9940716623629634e-07 -1.7854132213660820e-06 0.0000000000000000e+00  7.0411580812697704e-07 -1.9315567605195451e-06 0.0000000000000000e+00  8.3204339208434204e-07 -2.1165076685725984e-06 0.0000000000000000e+00  6.7844639786491413e-07 -7.0334625214520941e-06 0.0000000000000000e+00  4.5373559424334022e-07 -7.8941943833802460e-06 0.0000000000000000e+00  2.1898169119758485e-07 -6.6922801470619956e-06 0.0000000000000000e+00  0.0000000000000000e+00 0.0000000000000000e+00 0.0000000000000000e+00  0.0000000000000000e+00 0.0000000000000000e+00 0.0000000000000000e+00  -2.7127519595658117e-07 -6.1328704220198949e-06 0.0000000000000000e+00  -5.8382987681751891e-07 -7.3618288441271570e-06 0.0000000000000000e+00  -9.1892636760216233e-07 -6.7327764297757578e-06 0.0000000000000000e+00  -1.2968133289903103e-06 -2.2661929918115699e-06 0.0000000000000000e+00  -1.3324461968580427e-06 -2.1365171646690610e-06 0.0000000000000000e+00  -1.3271030666237162e-06 -1.9967478828075588e-06 0.0000000000000000e+00  -7.2933416140918498e-07 -2.5666081866328598e-06 0.0000000000000000e+00  -3.3347518566468814e-07 -2.6260933793344001e-06 0.0000000000000000e+00  3.8706243722132298e-08 -2.6306623333709015e-06 0.0000000000000000e+00  4.1980787582581347e-07 -2.5947667084853038e-06 0.0000000000000000e+00  8.3305751461272792e-07 -2.4493096639134810e-06 0.0000000000000000e+00  1.3387375242540702e-06 -1.9634219004454300e-06 0.0000000000000000e+00  1.3815896423276005e-06 -2.1218384320964057e-06 0.0000000000000000e+00  1.3430791055717703e-06 -2.2543390443981084e-06 0.0000000000000000e+00  8.7890682435306519e-07 -6.6291506253450405e-06 0.0000000000000000e+00  5.5106054025327440e-07 -7.3878800411851105e-06 0.0000000000000000e+00  2.5990299149319800e-07 -6.2677677187339265e-06 0.0000000000000000e+00  0.0000000000000000e+00 0.0000000000000000e+00 0.0000000000000000e+00  0.0000000000000000e+00 0.0000000000000000e+00 0.0000000000000000e+00  -2.5816241983663246e-07 -5.6417267347085197e-06 0.0000000000000000e+00  -5.6999794183815000e-07 -6.7513204979461631e-06 0.0000000000000000e+00  -9.1603850716166293e-07 -6.1755165017072344e-06 0.0000000000000000e+00  -1.3824810608059582e-06 -2.2112223516679706e-06 0.0000000000000000e+00  -1.4302811998791996e-06 -2.2542531277835051e-06 0.0000000000000000e+00  -1.4016445772997741e-06 -2.3002583590707400e-06 0.0000000000000000e+00  -8.6831222443365132e-07 -3.3033034138635897e-06 0.0000000000000000e+00  -4.1317964193183822e-07 -3.4597610311425621e-06 0.0000000000000000e+00  5.5486218517810869e-09 -3.4701829481188440e-06 0.0000000000000000e+00  4.1903690736796776e-07 -3.4318534494143039e-06 0.0000000000000000e+00  8.6046021724760293e-07 -3.1975604840797222e-06 0.0000000000000000e+00  1.4306693470105864e-06 -2.2914128074185691e-06 0.0000000000000000e+00  1.4531496195974060e-06 -2.2410889420552019e-06 0.0000000000000000e+00  1.4039739907803775e-06 -2.1877690555423185e-06 0.0000000000000000e+00  9.6591062689231548e-07 -6.0808384879043218e-06 0.0000000000000000e+00  6.0328532347602015e-07 -6.7811715739160412e-06 0.0000000000000000e+00  2.8575778998315994e-07 -5.7790127639989973e-06 0.0000000000000000e+00  0.0000000000000000e+00 0.0000000000000000e+00 0.0000000000000000e+00  0.0000000000000000e+00 0.0000000000000000e+00 0.0000000000000000e+00  -2.0386021385200414e-07 -5.2001579385078660e-06 0.0000000000000000e+00  -4.5897482698086227e-07 -6.1955354933835993e-06 0.0000000000000000e+00  -7.3369455397210827e-07 -5.6636525748018079e-06 0.0000000000000000e+00  -1.0740503812758277e-06 -2.1932816444533728e-06 0.0000000000000000e+00  -1.1060403185553502e-06 -2.3595787537911611e-06 0.0000000000000000e+00  -1.1081679084904976e-06 -2.5239350768187360e-06 0.0000000000000000e+00  -7.6463277157311756e-07 -4.0044642477439253e-06 0.0000000000000000e+00  -3.9123332142357002e-07 -4.2372321171985337e-06 0.0000000000000000e+00  -2.8611378692171332e-08 -4.2502665448132630e-06 0.0000000000000000e+00  3.2913966815107559e-07 -4.2107447840139811e-06 0.0000000000000000e+00  6.9912313690919328e-07 -3.9066024176574879e-06 0.0000000000000000e+00  1.1277965606068187e-06 -2.5205517843797177e-06 0.0000000000000000e+00  1.1132691684224066e-06 -2.3491201549129797e-06 0.0000000000000000e+00  1.0708699087532904e-06 -2.1773055596821993e-06 0.0000000000000000e+00  8.1890774265518711e-07 -5.5654248789450524e-06 0.0000000000000000e+00  5.3160338700780194e-07 -6.2068275821731411e-06 0.0000000000000000e+00  2.6065309424163663e-07 -5.3073290629740377e-06 0.0000000000000000e+00  0.0000000000000000e+00 0.0000000000000000e+00 0.0000000000000000e+00  0.0000000000000000e+00 0.0000000000000000e+00 0.0000000000000000e+00  -1.3155294426812068e-07 -4.8726943947649789e-06 0.0000000000000000e+00  -3.0199521211919630e-07 -5.7895954198727641e-06 0.0000000000000000e+00  -4.7286748829887146e-07 -5.3075763267606531e-06 0.0000000000000000e+00  -6.4364493624988957e-07 -2.2671891742651065e-06 0.0000000000000000e+00  -6.7010797238050971e-07 -2.4501833028497761e-06 0.0000000000000000e+00  -7.0672578641245061e-07 -2.6296802829732356e-06 0.0000000000000000e+00  -5.3851581799927314e-07 -4.5230128087917120e-06 0.0000000000000000e+00  -2.9390544368849586e-07 -4.8373343176220772e-06 0.0000000000000000e+00  -3.8108693421073815e-08 -4.8588357479976110e-06 0.0000000000000000e+00  2.1585423073192200e-07 -4.8096156631856047e-06 0.0000000000000000e+00  4.6718472519301622e-07 -4.4361447672697555e-06 0.0000000000000000e+00  7.1245113837056479e-07 -2.6260763351867504e-06 0.0000000000000000e+00  6.6842812249406995e-07 -2.4414712105115492e-06 0.0000000000000000e+00  6.3551199574834852e-07 -2.2574007421974363e-06 0.0000000000000000e+00  5.4697636480739640e-07 -5.2143973853485343e-06 0.0000000000000000e+00  3.7468919277569028e-07 -5.7804048138079578e-06 0.0000000000000000e+00  1.9283469926508080e-07 -4.9373556122436514e-06 0.0000000000000000e+00  0.0000000000000000e+00 0.0000000000000000e+00 0.0000000000000000e+00  0.0000000000000000e+00 0.0000000000000000e+00 0.0000000000000000e+00  -6.5703841533503301e-08 -4.6743297209743874e-06 0.0000000000000000e+00  -1.5644020675689773e-07 -5.5516275737147293e-06 0.0000000000000000e+00  -2.3659286993917696e-07 -5.1187510950738064e-06 0.0000000000000000e+00  -2.8492154873668207e-07 -2.3887341554773183e-06 0.0000000000000000e+00  -3.1823202418095080e-07 -2.5262418641747839e-06 0.0000000000000000e+00  -3.7713148048039168e-07 -2.6610606091043820e-06 0.0000000000000000e+00  -3.1659492782144089e-07 -4.8332653441543163e-06 0.0000000000000000e+00  -1.8342646095976823e-07 -5.2244442461458236e-06 0.0000000000000000e+00  -3.1302586020197096e-08 -5.2604559994132378e-06 0.0000000000000000e+00  1.2169753702396629e-07 -5.1993678996944860e-06 0.0000000000000000e+00  2.6579874716864915e-07 -4.7672239118101132e-06 0.0000000000000000e+00  3.7412950999918240e-07 -2.6561292231555124e-06 0.0000000000000000e+00  3.1376660548858767e-07 -2.5191227350686132e-06 0.0000000000000000e+00  2.7966553095158445e-07 -2.3822652666736623e-06 0.0000000000000000e+00  2.8487368596373615e-07 -5.0454612831933934e-06 0.0000000000000000e+00  2.0991748532822063e-07 -5.5314814095521885e-06 0.0000000000000000e+00  1.1556771330908510e-07 -4.7025747423570648e-06 0.0000000000000000e+00  1.3292916467627638e-14 1.4840903556387346e-14 0.0000000000000000e+00  0.0000000000000000e+00 0.0000000000000000e+00 0.0000000000000000e+00  -1.8629602875061000e-08 -4.5825094719799535e-06 0.0000000000000000e+00  -5.1876772030001155e-08 -5.4475565244690940e-06 0.0000000000000000e+00  -7.2244276079050571e-08 -5.0533252758294891e-06 0.0000000000000000e+00  -5.8906532531179247e-08 -2.5091047765618372e-06 0.0000000000000000e+00  -1.0611236144710720e-07 -2.5888714341761213e-06 0.0000000000000000e+00  -1.7709274460714491e-07 -2.6669841666884832e-06 0.0000000000000000e+00  -1.6163792897015378e-07 -4.9903177168813037e-06 0.0000000000000000e+00  -9.8919568987510287e-08 -5.4394368100231548e-06 0.0000000000000000e+00  -1.9394763163020388e-08 -5.4909016279462352e-06 0.0000000000000000e+00  6.2227103590780118e-08 -5.4205788532822819e-06 0.0000000000000000e+00  1.3551500505141326e-07 -4.9476045734862395e-06 0.0000000000000000e+00  1.7122230407141540e-07 -2.6615149393751712e-06 0.0000000000000000e+00  1.0225448430055251e-07 -2.5832218529611149e-06 0.0000000000000000e+00  5.7263059220251036e-08 -2.5043153378544605e-06 0.0000000000000000e+00  9.8165547932881065e-08 -5.0056656684741171e-06 0.0000000000000000e+00  8.4111562317651866e-08 -5.4267335034325036e-06 0.0000000000000000e+00  5.3079764909733073e-08 -4.5874261192409799e-06 0.0000000000000000e+00  0.0000000000000000e+00 0.0000000000000000e+00 0.0000000000000000e+00  0.0000000000000000e+00 0.0000000000000000e+00 0.0000000000000000e+00  9.2662644092964695e-09 -4.5615977676686890e-06 0.0000000000000000e+00  9.9719552282492640e-09 -5.4287361458505892e-06 0.0000000000000000e+00  2.1259146103239088e-08 -5.0586011063634336e-06 0.0000000000000000e+00  5.4512967442596757e-08 -2.6028513866684620e-06 0.0000000000000000e+00  -8.3437766718429755e-09 -2.6388285330172825e-06 0.0000000000000000e+00  -8.6661288481051885e-08 -2.6738181993498934e-06 0.0000000000000000e+00  -7.9371068214727218e-08 -5.0642389535372212e-06 0.0000000000000000e+00  -4.9850331337393905e-08 -5.5491816081091550e-06 0.0000000000000000e+00  -9.1931495366692603e-09 -5.6127998311876523e-06 0.0000000000000000e+00  3.3597568480130411e-08 -5.5369656169862169e-06 0.0000000000000000e+00  7.1224127242621842e-08 -5.0396762038869887e-06 0.0000000000000000e+00  8.1409376282793357e-08 -2.6688627166126024e-06 0.0000000000000000e+00  5.9757541512428284e-09 -2.6345076519666080e-06 0.0000000000000000e+00  -5.4079225815736482e-08 -2.5990671737018308e-06 0.0000000000000000e+00  -8.7011424092564459e-09 -5.0337429161837918e-06 0.0000000000000000e+00  7.0654327291017704e-09 -5.4127883403697838e-06 0.0000000000000000e+00  1.2793873467769216e-08 -4.5547732047632002e-06 0.0000000000000000e+00  0.0000000000000000e+00 0.0000000000000000e+00 0.0000000000000000e+00  0.0000000000000000e+00 0.0000000000000000e+00 0.0000000000000000e+00  2.3396067276267387e-08 -4.5803629528607351e-06 0.0000000000000000e+00  4.1026024074092864e-08 -5.4551139302921976e-06 0.0000000000000000e+00  6.6037858167503756e-08 -5.0958815665704683e-06 0.0000000000000000e+00  1.0016992959015486e-07 -2.6653458394497996e-06 0.0000000000000000e+00  2.2758302107759334e-08 -2.6766326134794274e-06 0.0000000000000000e+00  -6.2389016275920065e-08 -2.6871750465637006e-06 0.0000000000000000e+00  -4.8818329868398033e-08 -5.1065344795164694e-06 0.0000000000000000e+00  -2.8860648910218452e-08 -5.6106475846353873e-06 0.0000000000000000e+00  -2.7985979225188105e-09 -5.6819196185439844e-06 0.0000000000000000e+00  2.4921634492602038e-08 -5.6032261161093565e-06 0.0000000000000000e+00  5.0393447913310311e-08 -5.0921675439090762e-06 0.0000000000000000e+00  5.8873745453559141e-08 -2.6833867609903741e-06 0.0000000000000000e+00  -2.3913428470650798e-08 -2.6735302744363222e-06 0.0000000000000000e+00  -9.9138087003578127e-08 -2.6624585645012647e-06 0.0000000000000000e+00  -5.9219290985340221e-08 -5.0874358710832337e-06 0.0000000000000000e+00  -3.2179890193457586e-08 -5.4451117553160840e-06 0.0000000000000000e+00  -8.8134696095069903e-09 -4.5689851626061367e-06 0.0000000000000000e+00  0.0000000000000000e+00 0.0000000000000000e+00 0.0000000000000000e+00  0.0000000000000000e+00 0.0000000000000000e+00 0.0000000000000000e+00  2.9831849122677714e-08 -4.6183434628583855e-06 0.0000000000000000e+00  5.4783844689754559e-08 -5.5018343987342819e-06 0.0000000000000000e+00  8.4686049233155904e-08 -5.1438455695531407e-06 0.0000000000000000e+00  1.1512839490689312e-07 -2.7020102293617943e-06 0.0000000000000000e+00  2.4758380607320556e-08 -2.7025365547156012e-06 0.0000000000000000e+00  -6.8603789803516880e-08 -2.7022550822177983e-06 0.0000000000000000e+00  -4.6264797013097441e-08 -5.1447079845281024e-06 0.0000000000000000e+00  -2.4494942827704572e-08 -5.6592697712986840e-06 0.0000000000000000e+00  3.5542674544810680e-10 -5.7346883257123812e-06 0.0000000000000000e+00  2.6400815809495895e-08 -5.6543384052275813e-06 0.0000000000000000e+00  5.1940797398317177e-08 -5.1337646480677266e-06 0.0000000000000000e+00  6.6530288142906039e-08 -2.6998856147091981e-06 0.0000000000000000e+00 