<?xml version="1.0"?>
<VTKFile type="UnstructuredGrid"  version="0.1"  >
<UnstructuredGrid>
<Piece  NumberOfPoints="589" NumberOfCells="1080">
<Points>
<DataArray  type="Float64"  NumberOfComponents="3"  format="ascii">-9 0 0  -8 0 0  -7 0 0  -6 0 0  -5 0 0  -4 0 0  -3 0 0  -2 0 0  -1 0 0  0 0 0  1 0 0  2 0 0  3 0 0  4 0 0  5 0 0  6 0 0  7 0 0  8 0 0  9 0 0  -9 2 0  -8.000000901137218 1.999999053848899 0  -7.000001920069274 1.999998170466669 0  -6.000003256996745 1.999997394271068 0  -5.000005305705256 1.999996723467858 0  -4.000003745269329 1.999997696304043 0  -3.000002010436844 1.999998335004028 0  -2.00000097155004 1.999998810125908 0  -1.00000039855758 1.999999175799924 0  -1.122718137632639e-07 1.999999332797822 0  1.000000149126297 1.999999232506769 0  2.00000063483894 1.999998895711849 0  3.000001526569127 1.999998451179185 0  4.000002905984451 1.999997908095642 0  5.000004785770819 1.999997517586079 0  6.000002918485497 1.999997826516774 0  7.000001713556739 1.999998405919153 0  8.000000802894574 1.999999159632903 0  9 2 0  -9 4 0  -8.000001331092811 3.99999785662669 0  -7.000002568154925 3.999995912190661 0  -6.000003666864946 3.999994366975195 0  -5.000004658383238 3.999993424954276 0  -4.000002708487518 3.999993730835058 0  -3.000001195647687 3.999995085363528 0  -2.000000353128258 3.999996841857238 0  -1.000000093858873 3.999998218852053 0  -1.747672917399921e-07 3.999998779066804 0  0.9999997238076569 3.999998378718401 0  1.999999921470248 3.999997238254437 0  3.000000729145542 3.999995663659161 0  4.000002211008765 3.999994063328706 0  5.000004052419196 3.999993419576641 0  6.000003187536976 3.999994571149921 0  7.000002250043132 3.999996114597453 0  8.000001174715658 3.999997972656988 0  9 4 0  -9 6 0  -8.00000213716776 5.999995863669969 0  -7.000003769649823 5.999992057045128 0  -6.000004505503786 5.999988926911371 0  -5.00000422090842 5.999986823061907 0  -4.000000968911834 5.999988634025168 0  -2.999999200795735 5.999992471721999 0  -1.999999112292667 5.999996495877323 0  -0.9999997556560196 5.999998769288683 0  -4.251253351513117e-07 5.99999927519654 0  0.9999990428358889 5.999998543128782 0  1.999998798709062 5.999996536249439 0  2.999999048675663 5.999993200076644 0  4.000000205643181 5.999989748785022 0  5.000003017737776 5.999988088181706 0  6.000003747038099 5.999989748296354 0  7.000003337862384 5.999992564840954 0  8.000001944084833 5.999996108560757 0  9 6 0  -9 8 0  -8.000004961845926 7.999992551947366 0  -7.000008557643805 7.999985495992701 0  -6.000009425941644 7.999979381764516 0  -5.000006305927553 7.999975148410874 0  -4.00000074372294 7.999983353711832 0  -3.000001102096262 7.999993007656394 0  -2.000002495024336 7.999997848926196 0  -1.000002135353458 7.99999861134049 0  -5.015786535119125e-07 7.999998844936776 0  1.000000877706777 7.999999209032586 0  2.000000988324463 7.999997200611529 0  2.999999322456518 7.999993625878569 0  3.999999321499601 7.999985425126375 0  5.000004952727523 7.99997631493626 0  6.000008860415231 7.99998029979348 0  7.000008364053081 7.999986106440396 0  8.000004914648542 7.999992853633271 0  9 8 0  -9 10 0  -8.000013250490396 9.999987672024028 0  -7.000024255323896 9.999975168322401 0  -6.000030299386872 9.999962313590494 0  -5.000027533070824 9.999948931240167 0  -4.000019269120348 9.999974095552133 0  -3.000019436785397 9.999995932727947 0  -2.000015030072544 9.99999295048616 0  -1.000007233859413 9.999991993972623 0  -1.255867094630799e-06 9.999991770936145 0  1.000004676446584 9.999991730880691 0  2.000012230888047 9.999991401325047 0  3.000019535991805 9.999998252981721 0  4.000019853729929 9.999977683022351 0  5.000028946449863 9.999951035981692 0  6.000031589548971 9.999963564488025 0  7.000025202132431 9.999975886064961 0  8.000013745993234 9.999988002151369 0  9 10 0  -9 12 0  -8.0000305208042 11.99998349536719 0  -7.000059794549642 11.99996624536869 0  -6.000086411704082 11.99994735689278 0  -5.000108645719345 11.99992558261413 0  -4.000104929703428 11.99996926256743 0  -3.000107774903435 12.00001251018577 0  -2.000073384584751 12.00000721200514 0  -1.00003649886503 12.00000434995772 0  1.280107497679375e-06 12.00000373319303 0  1.00003946604015 12.00000543176077 0  2.000077737954681 12.00000999627745 0  3.000115107688341 12.00001883471698 0  4.000112358355049 11.99997244943611 0  5.000114560503845 11.99992576179015 0  6.000090438717189 11.99994765767499 0  7.000062314054635 11.99996648814541 0  8.000031736077636 11.99998362393574 0  9 12 0  -9 14 0  -8.000052777496613 13.99998230054691 0  -7.000105957218566 13.99996387696372 0  -6.000160051646935 13.99994394432462 0  -5.000215852757422 13.99992160228176 0  -4.000216735497271 13.99996994932701 0  -3.000216104837027 14.00001899084367 0  -2.000141724216969 14.00001172977752 0  -1.000069338473409 14.00000772545567 0  2.188559999061293e-06 14.00000643469918 0  1.000073914219303 14.00000766955692 0  2.000146858597557 14.00001149660501 0  3.000221985668099 14.00001813719569 0  4.000223556434682 13.9999698400533 0  5.000223518966508 13.99992192416919 0  6.000165294869682 13.99994401400494 0  7.00010923657408 13.99996386982603 0  8.000054356883338 13.99998228510587 0  9 14 0  -9 16 0  -8.000073422888624 15.99998400245791 0  -7.000148457148797 15.99996754523761 0  -6.000226858598571 15.99995017004616 0  -5.000310686434442 15.99993143341358 0  -4.000313768705239 15.99996984300277 0  -3.000310317113486 16.0000079967034 0  -2.000202090540847 16.00000322247305 0  -1.000098746007697 16.00000024819552 0  2.30250793467346e-06 15.9999990350896 0  1.000103490226236 15.99999953990426 0  2.000207254260204 16.00000174406761 0  3.000316198003292 16.00000564031426 0  4.000319999907397 15.99996789368866 0  5.000317098667772 15.99993011950755 0  6.000231480689475 15.99994930717748 0  7.000151440350669 15.99996701424706 0  8.000074883777909 15.99998374812073 0  9 16 0  -9 18 0  -8.000087620385301 17.9999875430908 0  -7.000177484271644 17.99997488554337 0  -6.000271953206028 17.99996184176501 0  -5.000373626324792 17.99994825955023 0  -4.000377853953912 17.99996919671778 0  -3.000373391482537 17.99999010851896 0  -2.000242935344881 17.99998751655681 0  -1.000118972943 17.99998572757733 0  1.859467656902331e-06 17.99998476512184 0  1.000122764029548 17.99998461413756 0  2.000246937851711 17.99998522438176 0  3.000377727387006 17.99998650260991 0  4.00038240240695 17.99996639063502 0  5.000378266763491 17.99994636807008 0  6.000275348468381 17.99996052311507 0  7.000179704350591 17.99997405167659 0  8.000088716791371 17.9999871391696 0  9 18 0  -9 20 0  -8.000092841800823 19.99999188617569 0  -7.000188087128252 19.9999837707135 0  -6.000288224348873 19.99997566717016 0  -5.000395910436254 19.99996762014366 0  -4.000400406594158 19.99996846372887 0  -3.000395714982987 19.99996929141459 0  -2.000257812893741 19.99996859937228 0  -1.000126683661661 19.99996790161687 0  1.12767918104088e-06 19.99996725002389 0  1.000128964123855 19.99996664416309 0  2.000260165841884 19.99996603334507 0  3.000398179976944 19.99996531400615 0  4.000402914250757 19.99996544597136 0  5.000398447501507 19.99996563906345 0  6.000290112469689 19.99997424492396 0  7.00018933777547 19.99998285331901 0  8.000093464439223 19.999991436758 0  8.999999999998314 20 0  -9 22 0  -8.000088447346501 21.9999962356999 0  -7.000179118655774 21.99999260808136 0  -6.000274293765786 21.99998926633711 0  -5.000376362533965 21.999986384816 0  -4.000380518731249 21.9999676660908 0  -3.000376264342927 21.99994893996517 0  -2.000245606258506 21.99994970500488 0  -1.000121126460146 21.99994989104018 0  2.954969735370145e-07 21.99994955204212 0  1.000121706589159 21.9999486940214 0  2.000246151468561 21.99994727629428 0  3.000376743640836 21.99994521121472 0  4.000380932732984 21.99996487653259 0  5.000376750181734 21.99998458347602 0  6.000274628870431 21.99998795639441 0  7.000179361975894 21.99999175463008 0  8.00008857473599 21.99999581498859 0  9 22 0  -9 24 0  -8.000075155404835 24.00000003842608 0  -7.000152131431395 24.00000030184583 0  -6.000232782639865 24.00000102444988 0  -5.000319029469483 24.00000245869417 0  -4.000322464823993 23.99996688896589 0  -3.000319060239641 23.99993132299207 0  -2.000208693169839 23.9999331261237 0  -1.000103340960463 23.99993398010782 0  -4.930431506600293e-07 23.99993392966581 0  1.000102317380966 23.99993298218903 0  2.000207555050961 23.99993110806513 0  3.000317724717199 23.99992824105436 0  4.000320989726776 23.99996461322658 0  5.000317500705433 24.00000101905244 0  6.000231721895142 23.99999996642494 0  7.000151464200381 23.99999960732637 0  8.000074833550244 23.99999969450991 0  9 24 0  -9 26 0  -8.000054579129129 26.00000294115105 0  -7.000110440101749 26.0000061588156 0  -6.000168883285413 26.00000993589793 0  -5.000231244643777 26.00001456784615 0  -4.000233733925898 25.99996619431767 0  -3.000231427780924 25.99991783156429 0  -2.000151725666682 25.99992034331825 0  -1.000075541148398 25.99992168617556 0  -1.13134728544265e-06 25.99992189472017 0  1.000073222591432 25.99992097621286 0  2.000149237513773 25.99991891060357 0  3.000228650654054 25.99991565090549 0  4.000230771467765 25.99996460025556 0  5.000228214147518 26.00001357635619 0  6.000166725057588 26.00000920225676 0  7.000109055010974 26.00000567484415 0  8.000053902517468 26.00000270077542 0  9 26 0  -9 28 0  -8.000028873617248 28.0000047378194 0  -7.000058416315949 28.00000977809148 0  -6.000089305384536 28.00001542785648 0  -5.000122233630517 28.00002200302099 0  -4.000123658202726 27.99996562336105 0  -3.000122585073275 27.99990925934582 0  -2.000080693951543 27.99991223544286 0  -1.000040645305652 27.99991392884879 0  -1.545705024775711e-06 27.99991436733323 0  1.000037487134113 27.99991355833823 0  2.000077333672883 27.99991148860039 0  3.00011888192096 27.99990812482933 0  4.000119745239581 27.99996479926999 0  5.000118246669357 28.00002149617908 0  6.000086446627964 28.00001505133622 0  7.000056572261846 28.0000095289967 0  8.000027969956367 28.00
[...]
<PointData  Vectors="f_44-0"> 
<DataArray  type="Float64"  Name="f_44-0"  NumberOfComponents="3" format="ascii">0.0000000000000000e+00 0.0000000000000000e+00 0.0000000000000000e+00  -5.5825920129718638e-09 -1.6685343248150142e-01 0.0000000000000000e+00  1.4010463256001606e-08 -1.6376694701670855e-01 0.0000000000000000e+00  1.3611890874800147e-08 -1.2953967030477126e-01 0.0000000000000000e+00  0.0000000000000000e+00 0.0000000000000000e+00 0.0000000000000000e+00  0.0000000000000000e+00 0.0000000000000000e+00 0.0000000000000000e+00  0.0000000000000000e+00 0.0000000000000000e+00 0.0000000000000000e+00  0.0000000000000000e+00 0.0000000000000000e+00 0.0000000000000000e+00  0.0000000000000000e+00 0.0000000000000000e+00 0.0000000000000000e+00  0.0000000000000000e+00 0.0000000000000000e+00 0.0000000000000000e+00  0.0000000000000000e+00 0.0000000000000000e+00 0.0000000000000000e+00  0.0000000000000000e+00 0.0000000000000000e+00 0.0000000000000000e+00  0.0000000000000000e+00 0.0000000000000000e+00 0.0000000000000000e+00  0.0000000000000000e+00 0.0000000000000000e+00 0.0000000000000000e+00  0.0000000000000000e+00 0.0000000000000000e+00 0.0000000000000000e+00  -5.3829291665585254e-09 -1.6734246113255405e-01 0.0000000000000000e+00  1.4372066833146969e-08 -1.6416346656335476e-01 0.0000000000000000e+00  1.3258736672766209e-08 -1.2963989897608100e-01 0.0000000000000000e+00  0.0000000000000000e+00 0.0000000000000000e+00 0.0000000000000000e+00  0.0000000000000000e+00 0.0000000000000000e+00 0.0000000000000000e+00  6.9431479004722260e-05 -1.4470219946869869e-01 0.0000000000000000e+00  6.0677715304856392e-04 -1.6348905112199819e-01 0.0000000000000000e+00  1.2916965329778506e-03 -1.4494360491157551e-01 0.0000000000000000e+00  6.9777604018499774e-05 -1.3415797204468363e-04 0.0000000000000000e+00  1.2057082829049025e-04 -1.7093439640039032e-04 0.0000000000000000e+00  8.3106099387824644e-05 -1.3282712023683884e-04 0.0000000000000000e+00  8.2953333680372304e-05 -6.3052117045030493e-05 0.0000000000000000e+00  5.7919435936016085e-05 -2.4833357525598822e-05 0.0000000000000000e+00  2.6163911130780127e-05 -2.2941402748780048e-05 0.0000000000000000e+00  -7.1463237418971258e-06 -5.2342749576727451e-05 0.0000000000000000e+00  -2.8828576046478190e-05 -1.0009469522328444e-04 0.0000000000000000e+00  -4.1915893224279949e-05 -1.6816472930505870e-04 0.0000000000000000e+00  -4.7118818051342221e-05 -1.9786491066923063e-04 0.0000000000000000e+00  -7.2886347709512394e-05 -3.3687415025042004e-04 0.0000000000000000e+00  1.6870069804971049e-04 -1.4507711120463229e-01 0.0000000000000000e+00  7.1606087932432540e-04 -1.6387239798761027e-01 0.0000000000000000e+00  1.4097594652673336e-03 -1.4524545131861258e-01 0.0000000000000000e+00  0.0000000000000000e+00 0.0000000000000000e+00 0.0000000000000000e+00  0.0000000000000000e+00 0.0000000000000000e+00 0.0000000000000000e+00  4.5768687545481390e-04 -1.4500581154314079e-01 0.0000000000000000e+00  -3.1414530053503003e-05 -1.6221357858356139e-01 0.0000000000000000e+00  5.4839691276168453e-04 -1.4544066320343721e-01 0.0000000000000000e+00  -1.9496605162053971e-04 -3.3142073687063474e-04 0.0000000000000000e+00  -4.6301942374118969e-05 -1.8318633310807303e-04 0.0000000000000000e+00  1.4748818596096432e-05 -1.3148671211331951e-05 0.0000000000000000e+00  3.0983813756041377e-05 4.4583030246458871e-05 0.0000000000000000e+00  -7.2388272522447809e-06 2.9724241848117381e-05 0.0000000000000000e+00  -4.0641524847157325e-05 -8.7112939887840752e-06 0.0000000000000000e+00  -5.5910983867534974e-05 -3.6596923327193389e-05 0.0000000000000000e+00  -2.4572728361675472e-05 -1.1314572936388971e-04 0.0000000000000000e+00  -7.2018428372141296e-06 -2.0458160661783657e-04 0.0000000000000000e+00  1.3929237485877619e-05 -2.1212702938054503e-04 0.0000000000000000e+00  5.9107335240053005e-05 -1.3476421927204014e-04 0.0000000000000000e+00  5.8667795155114850e-04 -1.4536817487136300e-01 0.0000000000000000e+00  1.0757479759919948e-04 -1.6254412352010122e-01 0.0000000000000000e+00  6.6907083459956471e-04 -1.4570101271345323e-01 0.0000000000000000e+00  0.0000000000000000e+00 0.0000000000000000e+00 0.0000000000000000e+00  0.0000000000000000e+00 0.0000000000000000e+00 0.0000000000000000e+00  4.2683471848173587e-04 -1.4514426922982529e-01 0.0000000000000000e+00  -1.1287542676652790e-04 -1.6212300154097914e-01 0.0000000000000000e+00  3.3840179181050323e-04 -1.4541647208874373e-01 0.0000000000000000e+00  -2.6593204098094078e-04 -3.1539138150788669e-04 0.0000000000000000e+00  -7.0769310516271319e-05 -6.8814032068529590e-05 0.0000000000000000e+00  -1.1199837133182013e-05 2.7857543869491287e-05 0.0000000000000000e+00  -8.4769909643436653e-05 -9.4396618629918067e-05 0.0000000000000000e+00  -6.9957951467638477e-05 -1.2773197248147679e-04 0.0000000000000000e+00  -2.8886053520004567e-05 -2.9715101044849770e-05 0.0000000000000000e+00  -4.7781993955667767e-06 -5.0342396502805886e-06 0.0000000000000000e+00  -4.9630421190039508e-05 -7.3064228772928868e-05 0.0000000000000000e+00  -2.5259660189291340e-05 -1.8458857776796565e-04 0.0000000000000000e+00  7.2386624103050362e-05 -4.6208173937954423e-04 0.0000000000000000e+00  8.2438922772023234e-05 -6.8303670452232355e-04 0.0000000000000000e+00  7.5700179766001983e-04 -1.4552973172429134e-01 0.0000000000000000e+00  2.1991379558368779e-04 -1.6234183819785727e-01 0.0000000000000000e+00  5.9499141350263731e-04 -1.4543536857398667e-01 0.0000000000000000e+00  0.0000000000000000e+00 0.0000000000000000e+00 0.0000000000000000e+00  0.0000000000000000e+00 0.0000000000000000e+00 0.0000000000000000e+00  2.0407755787481225e-04 -1.4480580939871351e-01 0.0000000000000000e+00  -4.9773791600536547e-04 -1.6198199054631415e-01 0.0000000000000000e+00  -2.3534070660332788e-04 -1.4540805589492409e-01 0.0000000000000000e+00  -9.9935256684207871e-04 -9.8371962585746858e-04 0.0000000000000000e+00  -8.4639628531194781e-04 -3.8835422943553902e-04 0.0000000000000000e+00  -3.2485713849281331e-04 -4.7875595347064812e-04 0.0000000000000000e+00  -3.4724478216021021e-04 -5.6470538357483431e-04 0.0000000000000000e+00  -4.7420350398097476e-05 -2.7001357063618408e-04 0.0000000000000000e+00  1.1215366843374106e-04 -2.1662118639932719e-04 0.0000000000000000e+00  3.2329991240637976e-04 -4.6821296139240305e-04 0.0000000000000000e+00  3.4406633377945240e-04 -1.2608905107387624e-04 0.0000000000000000e+00  1.0379776599751061e-03 -4.9736293448218217e-04 0.0000000000000000e+00  1.0875316159169683e-03 -1.3358773222248792e-03 0.0000000000000000e+00  8.6972317038711586e-04 -1.6333952775624133e-03 0.0000000000000000e+00  1.1433122521399030e-03 -1.4542116476325997e-01 0.0000000000000000e+00  5.4450263976123714e-04 -1.6200201656100041e-01 0.0000000000000000e+00  7.4885364362729139e-04 -1.4502665163792922e-01 0.0000000000000000e+00  0.0000000000000000e+00 0.0000000000000000e+00 0.0000000000000000e+00  0.0000000000000000e+00 0.0000000000000000e+00 0.0000000000000000e+00  -2.7211797148861047e-04 -1.4374657825046205e-01 0.0000000000000000e+00  -1.4757916340429340e-03 -1.6110476867485307e-01 0.0000000000000000e+00  -1.6041711308391266e-03 -1.4525890236208380e-01 0.0000000000000000e+00  -3.9590359073005807e-03 -8.5188377956764362e-04 0.0000000000000000e+00  -2.9785454497590117e-03 -1.4453341144689995e-04 0.0000000000000000e+00  -2.0383992097619276e-03 4.6751952757118445e-04 0.0000000000000000e+00  -5.4115625252073966e-04 -1.2412305713795260e-03 0.0000000000000000e+00  -1.7598952137239273e-04 -6.2588493293792814e-04 0.0000000000000000e+00  2.4680421584723607e-04 -5.1091188610937225e-04 0.0000000000000000e+00  6.4440572145906775e-04 -5.3347111405356899e-04 0.0000000000000000e+00  9.5597927055048298e-04 -6.0520405344858955e-04 0.0000000000000000e+00  2.6967466613907602e-03 -4.4807615080253089e-04 0.0000000000000000e+00  3.1086249417954935e-03 -1.7358520624988483e-03 0.0000000000000000e+00  3.7294280598339801e-03 -3.1317986819416723e-03 0.0000000000000000e+00  2.4364995640272853e-03 -1.4491486591977967e-01 0.0000000000000000e+00  1.3892733121416137e-03 -1.6106704817037482e-01 0.0000000000000000e+00  1.1329975290205827e-03 -1.4406888047967012e-01 0.0000000000000000e+00  0.0000000000000000e+00 0.0000000000000000e+00 0.0000000000000000e+00  0.0000000000000000e+00 0.0000000000000000e+00 0.0000000000000000e+00  -1.0290708841576475e-03 -1.4141734326644831e-01 0.0000000000000000e+00  -3.0790256386697139e-03 -1.5883246493666145e-01 0.0000000000000000e+00  -3.9966537774894289e-03 -1.4375398684249471e-01 0.0000000000000000e+00  -5.8131500627114918e-03 -2.4420803828713467e-03 0.0000000000000000e+00  -6.2108681520676619e-03 -2.7650862193819047e-04 0.0000000000000000e+00  -7.1050355432457392e-03 2.5533085158801999e-03 0.0000000000000000e+00  -3.9835556438354994e-03 -4.0055479679920979e-03 0.0000000000000000e+00  -1.7006874958994643e-03 -4.8204224322596339e-03 0.0000000000000000e+00  4.1488366260543228e-04 -4.8298159739503738e-03 0.0000000000000000e+00  2.4759269837222441e-03 -4.3579104571745391e-03 0.0000000000000000e+00  4.1903766266273845e-03 -2.9370474312929353e-03 0.0000000000000000e+00  5.5334468991471231e-03 4.1220201897273074e-04 0.0000000000000000e+00  6.1417110189969691e-03 -1.5002416931580527e-03 0.0000000000000000e+00  6.8660109475568876e-03 -3.0051000580135784e-03 0.0000000000000000e+00  4.9515803164792462e-03 -1.4337142246629769e-01 0.0000000000000000e+00  2.9263214024255737e-03 -1.5886759393550140e-01 0.0000000000000000e+00  1.8146611135372015e-03 -1.4200250972729625e-01 0.0000000000000000e+00  0.0000000000000000e+00 0.0000000000000000e+00 0.0000000000000000e+00  0.0000000000000000e+00 0.0000000000000000e+00 0.0000000000000000e+00  -1.9782247219832729e-03 -1.3733238600627237e-01 0.0000000000000000e+00  -5.1398204837808954e-03 -1.5450401970845060e-01 0.0000000000000000e+00  -7.3159454997331168e-03 -1.4015551475664514e-01 0.0000000000000000e+00  -9.1408481881962121e-03 -3.4560472742797940e-03 0.0000000000000000e+00  -9.4884008885280959e-03 -1.2244467195198082e-03 0.0000000000000000e+00  -9.6577927408682662e-03 5.6698262787982187e-04 0.0000000000000000e+00  -6.7898586765166580e-03 -8.6818084492257374e-03 0.0000000000000000e+00  -3.2026374478343889e-03 -1.0531513669536811e-02 0.0000000000000000e+00  3.8909074124187932e-04 -1.0831396214945910e-02 0.0000000000000000e+00  3.9356889983324138e-03 -1.0240381142838048e-02 0.0000000000000000e+00  7.3595776868749319e-03 -7.6840762638131698e-03 0.0000000000000000e+00  9.4709572958841613e-03 1.3966285127645962e-03 0.0000000000000000e+00  9.8260245670161780e-03 -8.3473111185245906e-04 0.0000000000000000e+00  9.9973839866393435e-03 -3.2084642389840962e-03 0.0000000000000000e+00  8.2598452081959796e-03 -1.3951076986943350e-01 0.0000000000000000e+00  4.9896281965635496e-03 -1.5469821789844448e-01 0.0000000000000000e+00  2.7196213689388185e-03 -1.3827674264399090e-01 0.0000000000000000e+00  0.0000000000000000e+00 0.0000000000000000e+00 0.0000000000000000e+00  0.0000000000000000e+00 0.0000000000000000e+00 0.0000000000000000e+00  -2.8964347820240183e-03 -1.3135397714953928e-01 0.0000000000000000e+00  -7.1377872678026850e-03 -1.4790127528038791e-01 0.0000000000000000e+00  -1.0541898198243069e-02 -1.3418308283797908e-01 0.0000000000000000e+00  -1.3090142853154791e-02 -3.6547982839840250e-03 0.0000000000000000e+00  -1.3443075297145694e-02 -1.7494792268355267e-03 0.0000000000000000e+00  -1.3512063157578120e-02 1.7935907692253735e-04 0.0000000000000000e+00  -9.6767756419396129e-03 -1.6714509015298286e-02 0.0000000000000000e+00  -4.7001381320095062e-03 -1.8973421069658981e-02 0.0000000000000000e+00  3.2428664306922647e-04 -1.9412629942372906e-02 0.0000000000000000e+00  5.3407133568276130e-03 -1.8838387202967651e-02 0.0000000000000000e+00  1.0358515118751424e-02 -1.5350931717818468e-02 0.0000000000000000e+00  1.3336634626984735e-02 1.4142937193431131e-03 0.0000000000000000e+00  1.3673002462296045e-02 -5.1357264792127101e-04 0.0000000000000000e+00  1.3733010621989460e-02 -2.3271519751678848e-03 0.0000000000000000e+00  1.1407650947185764e-02 -1.3329852501601527e-01 0.0000000000000000e+00  7.0314888746803401e-03 -1.4820399435330883e-01 0.0000000000000000e+00  3.6284622655569469e-03 -1.3263189090969915e-01 0.0000000000000000e+00  0.0000000000000000e+00 0.0000000000000000e+00 0.0000000000000000e+00  0.0000000000000000e+00 0.0000000000000000e+00 0.0000000000000000e+00  -3.5710981934641279e-03 -1.2378665969853132e-01 0.0000000000000000e+00  -8.6019630009420995e-03 -1.3936545257570068e-01 0.0000000000000000e+00  -1.2927546961145885e-02 -1.2619849764875818e-01 0.0000000000000000e+00  -1.6208364263713117e-02 -3.1531586807905846e-03 0.0000000000000000e+00  -1.6501512194888299e-02 -1.9473408517500235e-03 0.0000000000000000e+00  -1.6343798680851188e-02 -7.9107329890740381e-04 0.0000000000000000e+00  -1.1925840912036375e-02 -2.7030373036270910e-02 0.0000000000000000e+00  -5.8911952421248680e-03 -3.0025048470915645e-02 0.0000000000000000e+00  2.1345973310899849e-04 -3.0439996814118773e-02 0.0000000000000000e+00  6.3188385829946415e-03 -2.9911428825269273e-02 0.0000000000000000e+00  1.2501091376504651e-02 -2.5490581595344265e-02 0.0000000000000000e+00  1.6402751967566916e-02 8.3474210298535654e-04 0.0000000000000000e+00  1.6706227128983269e-02 -3.2198598858582057e-04 0.0000000000000000e+00  1.6559428224686597e-02 -1.4388715904695621e-03 0.0000000000000000e+00  1.3777364304514319e-02 -1.2506086763102184e-01 0.0000000000000000e+00  8.5734105785217583e-03 -1.3970337644437830e-01 0.0000000000000000e+00  4.3203481759088204e-03 -1.2528724397367091e-01 0.0000000000000000e+00  0.0000000000000000e+00 0.0000000000000000e+00 0.0000000000000000e+00  0.0000000000000000e+00 0.0000000000000000e+00 0.0000000000000000e+00  -3.8617262739851417e-03 -1.1528742840838999e-01 0.0000000000000000e+00  -9.2268269095193561e-03 -1.2965663626399032e-01 0.0000000000000000e+00  -1.3991197924853207e-02 -1.1697137662212001e-01 0.0000000000000000e+00  -1.7751058245876784e-02 -2.2513418315088041e-03 0.0000000000000000e+00  -1.7981935863247613e-02 -2.0103513581275910e-03 0.0000000000000000e+00  -1.7728007671053640e-02 -1.8017200327080625e-03 0.0000000000000000e+00  -1.2955234305257097e-02 -3.8815383340458226e-02 0.0000000000000000e+00  -6.4986301096772838e-03 -4.2635035539738471e-02 0.0000000000000000e+00  8.2110419571925690e-05 -4.2997480315510692e-02 0.0000000000000000e+00  6.6682356952067054e-03 -4.2524048360327811e-02 0.0000000000000000e+00  1.3399350848228766e-02 -3.7160948953727110e-02 0.0000000000000000e+00  1.7875557075016639e-02 -1.1972179958560563e-04 0.0000000000000000e+00  1.8108003698937655e-02 -3.1680738732440834e-04 0.0000000000000000e+00  1.7849912006207013e-02 -4.8506766888925361e-04 0.0000000000000000e+00  1.4811583160118475e-02 -1.1568882248210249e-01 0.0000000000000000e+00  9.2787722115035918e-03 -1.2996448538421104e-01 0.0000000000000000e+00  4.6388153667044664e-03 -1.1685518610652511e-01 0.0000000000000000e+00  1.6499339332439265e-11 1.0991338796260470e-11 0.0000000000000000e+00  0.0000000000000000e+00 0.0000000000000000e+00 0.0000000000000000e+00  -3.7079470786857503e-03 -1.0671000940259640e-01 0.0000000000000000e+00  -8.8837083674199839e-03 -1.1976482384633642e-01 0.0000000000000000e+00  -1.3532956107597785e-02 -1.0748042996183731e-01 0.0000000000000000e+00  -1.7388566091821857e-02 -1.1851533571989568e-03 0.0000000000000000e+00  -1.7553794318597320e-02 -1.9538696740996064e-03 0.0000000000000000e+00  -1.7251749701785304e-02 -2.7421535027234781e-03 0.0000000000000000e+00  -1.2604549573815635e-02 -5.0752507455447946e-02 0.0000000000000000e+00  -6.4132667403112879e-03 -5.5509039042813998e-02 0.0000000000000000e+00  -5.2294964725885635e-05 -5.5811916338257404e-02 0.0000000000000000e+00  6.3206769659081442e-03 -5.5396730117359724e-02 0.0000000000000000e+00  1.2894209867028853e-02 -4.9149781509163333e-02 0.0000000000000000e+00  1.7431175622205600e-02 -1.2266870525291995e-03 0.0000000000000000e+00  1.7592080198073120e-02 -4.1310179406904904e-04 0.0000000000000000e+00  1.7288072015308142e-02 4.2132870887391492e-04 0.0000000000000000e+00  1.4325846111406358e-02 -1.0619449470021884e-01 0.0000000000000000e+00  9.0096959340408029e-03 -1.2001293591219984e-01 0.0000000000000000e+00  4.5139742615345878e-03 -1.0818718224255534e-01 0.0000000000000000e+00  0.0000000000000000e+00 0.0000000000000000e+00 0.0000000000000000e+00  0.0000000000000000e+00 0.0000000000000000e+00 0.0000000000000000e+00  -3.1189781929571989e-03 -9.8952249342069518e-02 0.0000000000000000e+00  -7.5953512727000450e-03 -1.1073368247649649e-01 0.0000000000000000e+00  -1.1588634366061876e-02 -9.8741653722380460e-02 0.0000000000000000e+00  -1.5113994733626120e-02 -1.2855762547862458e-04 0.0000000000000000e+00  -1.5207968485218345e-02 -1.8210064532922009e-03 0.0000000000000000e+00  -1.4907357577684108e-02 -3.5255566710088132e-03 0.0000000000000000e+00  -1.0889820462067431e-02 -6.1565160627629470e-02 0.0000000000000000e+00  -5.6375552587592335e-03 -6.7273515355594962e-02 0.0000000000000000e+00  -1.7301475883569519e-04 -6.7529577822360617e-02 0.0000000000000000e+00  5.3090961488242707e-03 -6.7170742595744848e-02 0.0000000000000000e+00  1.1034124545287682e-02 -6.0182783370491308e-02 0.0000000000000000e+00  1.5078951873328228e-02 -2.3073755251260008e-03 0.0000000000000000e+00  1.5163802820628439e-02 -5.7544223088605573e-04 0.0000000000000000e+00  1.4857928297305114e-02 1.1684757463680481e-03 0.0000000000000000e+00  1.2359236693475982e-02 -9.7606013912774695e-02 0.0000000000000000e+00  7.7853494121018193e-03 -1.1091239415159697e-01 0.0000000000000000e+00  3.9514426833735525e-03 -1.0019650248898009e-01 0.0000000000000000e+00  0.0000000000000000e+00 0.0000000000000000e+00 0.0000000000000000e+00  0.0000000000000000e+00 0.0000000000000000e+00 0.0000000000000000e+00  -2.1587084314872384e-03 -9.2830547684942921e-02 0.0000000000000000e+00  -5.5023967139769805e-03 -1.0351763052622795e-01 0.0000000000000000e+00  -8.3759615782416693e-03 -9.1678649461693032e-02 0.0000000000000000e+00  -1.1178621069986823e-02 7.8499829093220137e-04 0.0000000000000000e+00  -1.1198267498623468e-02 -1.6418884088472416e-03 0.0000000000000000e+00  -1.0933318301136434e-02 -4.0752842767180705e-03 0.0000000000000000e+00  -8.0033407304652936e-03 -7.0110535848553146e-02 0.0000000000000000e+00  -4.2593747412707477e-03 -7.6679582355747788e-02 0.0000000000000000e+00  -2.6786455557355318e-04 -7.6908908660750022e-02 0.0000000000000000e+00  3.7454373768664624e-03 -7.6600847339654637e-02 0.0000000000000000e+00  8.0298608153322702e-03 -6.9096521635337096e-02 0.0000000000000000e+00  1.1081135314885771e-02 -3.2309964024639006e-03 0.0000000000000000e+00  1.1086735378712615e-02 -7.7509460639617475e-04 0.0000000000000000e+00  1.0813436709321465e-02 1.6873876305106552e-03 0.0000000000000000e+00  9.1295178702326101e-03 -9.0832024808129644e-02 0.0000000000000000e+00  5.7414900918597092e-03 -1.0362906082089933e-01 0.0000000000000000e+00  3.0119965719136985e-03 -9.3726251577104472e-02 0.0000000000000000e+00  0.0000000000000000e+00 0.0000000000000000e+00 0.0000000000000000e+00  0.0000000000000000e+00 0.0000000000000000e+00 0.0000000000000000e+00  -9.3087191499581024e-04 -8.8986143774015286e-02 0.0000000000000000e+00  -2.8305381508194742e-03 -9.8873962780941876e-02 0.0000000000000000e+00  -4.2447231695198866e-03 -8.7026409922627071e-02 0.0000000000000000e+00  -6.0247391377635006e-03 1.4636666636580480e-03 0.0000000000000000e+00  -5.9685211174113229e-03 -1.4361183498571924e-03 0.0000000000000000e+00  -5.7619643064355476e-03 -4.3386551536963502e-03 0.0000000000000000e+00  -4.2590247910213406e-03 -7.5500899589846071e-02 0.0000000000000000e+00  -2.4302360648006927e-03 -8.2740149296436791e-02 0.0000000000000000e+00  -3.2834472762073873e-04 -8.2964061072171275e-02 0.0000000000000000e+00  1.7979804928333469e-03 -8.2697972814855136e-02 0.0000000000000000e+00  4.2091393162040835e-03 -7.4964213144214684e-02 0.0000000000000000e+00  5.8877752838189697e-03 -3.9072540346286860e-03 0.0000000000000000e+00  5.8129728897649497e