<?xml version="1.0"?>
<VTKFile type="UnstructuredGrid"  version="0.1"  >
<UnstructuredGrid>
<Piece  NumberOfPoints="589" NumberOfCells="1080">
<Points>
<DataArray  type="Float64"  NumberOfComponents="3"  format="ascii">-9 0 0  -8 0 0  -7 0 0  -6 0 0  -5 0 0  -4 0 0  -3 0 0  -2 0 0  -1 0 0  0 0 0  1 0 0  2 0 0  3 0 0  4 0 0  5 0 0  6 0 0  7 0 0  8 0 0  9 0 0  -9 2 0  -8.000008256420289 1.999987693609944 0  -7.000017334981012 1.999976886252986 0  -6.000029144141351 1.999968792942678 0  -5.000048025810896 1.9999639395173 0  -4.000028649439804 1.999973098172958 0  -3.000008664659099 1.99998169138389 0  -1.999998837257505 1.999989714761241 0  -0.99999703074414 1.999996051222009 0  -2.294721510307116e-07 1.999998825493517 0  0.9999962187721475 1.999996895744702 0  1.999996832610027 1.999990722048032 0  3.000004657271408 1.999983137924126 0  4.000020655079407 1.999974991605986 0  5.000043792635902 1.999971584063735 0  6.000026465753918 1.999972866068976 0  7.000015745381676 1.999979108915251 0  8.00000751685662 1.999988701746598 0  9 2 0  -9 4 0  -8.000013224074863 3.999969391948861 0  -7.000023747599366 3.99994291696223 0  -6.000029998134426 3.999924626694094 0  -5.000032315638221 3.999918391858611 0  -4.000004193060486 3.9999225913517 0  -2.999985228302077 3.999946643211546 0  -1.999980071412701 3.999977962043988 0  -0.999986897849803 4.000003142807543 0  -2.550477630831911e-07 4.000013286210812 0  0.9999861016765439 4.000005338684764 0  1.999978315836572 3.999983881538245 0  2.999982534351015 3.999954822328893 0  4.000000618456099 3.999925577791992 0  5.00002804307507 3.999915693743922 0  6.000026505237334 3.999925889353397 0  7.0000215231233 3.999944818830003 0  8.00001218666193 3.999970582778536 0  9 4 0  -9 6 0  -8.000028992869826 5.999934562225788 0  -7.000047252110017 5.99987621267255 0  -6.000046584289358 5.999832242433456 0  -5.000024632897246 5.999809652475514 0  -3.999969930125354 5.999845224900192 0  -2.999944911900814 5.999919606087917 0  -1.999954407193441 5.999997583397703 0  -0.9999785161551458 6.00004095895273 0  -2.93389658925041e-06 6.000049676977168 0  0.9999751395677405 6.000035582421548 0  1.99995851247356 5.999996624802923 0  2.999952469493608 5.999930823853616 0  3.999965646964848 5.99986257539378 0  5.00001244161677 5.999828738339297 0  6.00004032180362 5.999843980768546 0  7.000044717119985 5.999883195011141 0  8.000028255584867 5.999937854679479 0  9 6 0  -9 8 0  -8.000087684425145 7.999871398902911 0  -7.000146457577078 7.999752011871704 0  -6.000148300519436 7.999654357527964 0  -5.000069191444604 7.999599081706902 0  -3.999963676288051 7.999763361460229 0  -2.999982754240664 7.999956389572054 0  -2.00002197529446 8.000050531529189 0  -1.000025067382923 8.000061382266503 0  -1.299016004762309e-06 8.000064557185988 0  1.000016531719367 8.000074002206929 0  2.000009461085619 8.000034584469907 0  2.999963833940492 7.999967420932431 0  3.999948645922037 7.999801290593195 0  5.000052600157169 7.999613844547237 0  6.000148063115413 7.999666213561452 0  7.000151321522805 7.999759811430525 0  8.000091486077245 7.999875200595639 0  9 8 0  -9 10 0  -8.000261924123871 9.999771457508505 0  -7.000473278844153 9.999541000912751 0  -6.000573725467971 9.999307158135073 0  -5.000479170896153 9.999069514278919 0  -4.000312208121373 9.999599290229561 0  -3.000338898613238 10.00005484210331 0  -2.000270540755721 9.999976759698693 0  -1.000123473531517 9.999951696936595 0  -1.496448232837862e-05 9.999945576161979 0  1.000092726184725 9.99994601016706 0  2.00023601884549 9.999943015514638 0  3.000362387738946 10.00010695058574 0  4.000346936634106 9.999673397087264 0  5.000537137282413 9.999101398343111 0  6.000624413921781 9.999323692171046 0  7.000510169563738 9.999549352879677 0  8.000281232746737 9.999774962819133 0  9 10 0  -9 12 0  -8.000637993100657 11.99967933907516 0  -7.001243000589509 11.9993438155132 0  -6.001777741486266 11.99897565271679 0  -5.002195942184875 11.99855006421918 0  -4.002110995418509 11.99951486885848 0  -3.002187756245044 12.00046997501006 0  -2.001498732718252 12.000354656736 0  -1.000733559131697 12.00029244754028 0  6.026831145441016e-05 12.00028066462068 0  1.000861685291472 12.00032132146548 0  2.001652900598914 12.00042613346946 0  3.002398387458234 12.00062440875447 0  4.00231603464017 11.99958472827853 0  5.002370701278321 11.99853639832477 0  6.001905821823667 11.99896807442741 0  7.001327273125124 11.99933932553328 0  8.000679848055736 11.99967715753736 0  9 12 0  -9 14 0  -8.001145080611728 13.99964685910599 0  -7.002292309856816 13.99927751227155 0  -6.003445388719188 13.998874325023 0  -5.004611954524487 13.99841686121609 0  -4.004624468136851 13.99954291927462 0  -3.004631006995721 14.00068323397363 0  -2.003033270172629 14.00052046552738 0  -1.00145901982579 14.00043180037305 0  0.0001053732912247098 14.00040627744884 0  1.001672824752906 14.00044036148499 0  2.003255294551133 14.00053590211142 0  3.004862228872032 14.00069808807859 0  4.004874701065661 13.99954334637555 0  5.004881701967107 13.99839574375748 0  6.003639650712165 13.99885489527251 0  7.002418560445002 13.99926341637185 0  8.001207330637847 13.99963955246759 0  9 14 0  -9 16 0  -8.001642314886494 15.99967932757591 0  -7.003316147248647 15.99934683486008 0  -6.005055750309158 15.99899050096514 0  -5.006900936501811 15.99859809202694 0  -4.006967041032286 15.99955667869529 0  -3.006904655512089 16.0005101390027 0  -2.004477129978526 16.00039087681504 0  -1.002146477314496 16.00031940291317 0  0.0001383126696046899 16.00029420248193 0  1.002425431939273 16.00031430434868 0  2.004763070913129 16.00037981801647 0  3.007202499695239 16.0004916884304 0  4.007272268123687 15.99951285804582 0  5.007211170145334 15.99853327245401 0  6.005285824252045 15.99894474016515 0  7.003468094878784 15.99931739904193 0  8.001717836532519 15.99966488702215 0  9 16 0  -9 18 0  -8.002012151780921 17.99975910938813 0  -7.004074526534135 17.99951165226378 0  -6.006239959642393 17.9992511879087 0  -5.008566473358679 17.998971550106 0  -4.008665910048684 17.99955951845606 0  -3.008570050716062 18.00014670513872 0  -2.005537675746103 18.00007096883898 0  -1.002652436524873 18.00002277566606 0  0.0001618724570245583 18.00000177318071 0  1.00297775935969 18.00000743628857 0  2.005867627781593 18.00003910779783 0  3.00890732918319 18.00009585427462 0  4.009008744310461 17.99949020409835 0  5.00891212916954 17.99888631905829 0  6.006497181633328 17.99919014198425 0  7.004245011410501 17.99947226325216 0  8.00209709177545 17.99973979379929 0  9 18 0  -9 20 0  -8.002179870487042 19.99986513617158 0  -7.004418244071 19.99972852989375 0  -6.006775851894482 19.99958863962364 0  -5.009317877798464 19.99944431606948 0  -4.00943110969543 19.99955927937267 0  -3.009319253107367 19.99967335604634 0  -2.006014396390364 19.99964149848581 0  -1.002876914824367 19.99961801693637 0  0.0001790391742278248 19.99960331137634 0  1.003236210378893 19.99959714385416 0  2.006377310057788 19.99959866113655 0  3.009688098143785 19.99960634027988 0  4.009802278162169 19.99947901543571 0  5.009689607135797 19.99935286899369 0  6.007052960115352 19.99952243984206 0  7.004602172676198 19.99968553104837 0  8.002271590948336 19.99984397684084 0  8.999999999993227 19.9999999999934 0  -9 22 0  -8.002112443320506 21.99997810906253 0  -7.004282610827708 21.99995853776711 0  -6.006570030259571 21.99994382866544 0  -5.009037817917414 21.99993697434686 0  -4.009148545099775 21.99955459164407 0  -3.009038752550178 21.99917119596884 0  -2.005826396912168 21.99917872434662 0  -1.00277753221552 21.99917837451578 0  0.0001913395780843543 21.9991709182207 0  1.003161199065407 21.99915631599997 0  2.006213013414111 21.99913373274051 0  3.009430243433194 21.99910152304943 0  4.009539975695163 21.99947548145655 0  5.00942761575744 21.99985006185901 0  6.00686100867887 21.99988063897744 0  7.004475932370729 21.99991735596498 0  8.002208899397163 21.99995780163063 0  9 22 0  -9 24 0  -8.00181295336168 24.00008180427793 0  -7.003675502074371 24.00016909581593 0  -6.005638630306504 24.00026758934299 0  -5.007756006776305 24.00038346824978 0  -4.007851429311042 23.99954562858778 0  -3.007757827685462 23.99870685146791 0  -2.004989074953348 23.99874727438923 0  -1.002360317453354 23.99876698046098 0  0.000199805061584176 23.99876692986438 0  1.002760751553971 23.99874722028364 0  2.005391976790359 23.99870709084124 0  3.0081648313329 23.99864491659881 0  4.008256455147002 23.99947748925541 0  5.008157798616446 24.00031036540427 0  6.005938825618581 24.00021424618294 0  7.003875073192383 24.00013424090112 0  8.001912563275019 24.00006458935082 0  9 24 0  -9 26 0  -8.001313756076442 26.00016357452519 0  -7.002663449827893 26.00033486286118 0  -6.004086004462354 26.00052180727263 0  -5.005620104214478 26.00073282443676 0  -4.0056904913667 25.99953292418203 0  -3.005623672872812 25.99833227810878 0  -2.003596242259661 25.99839826957536 0  -1.001670589351322 25.99843419209053 0  0.0002051670954400676 25.99844115138736 0  1.002081619982407 25.99841936659276 0  2.004009358923897 25.99836817109576 0  3.00604025924016 25.99828601056545 0  4.006103719199555 25.99948311908015 0  5.006028939481602 26.00068030551229 0  6.004391686278465 26.00048339270345 0  7.002866775340713 26.00030971720756 0  8.001415271321585 26.00015114066325 0  9 26 0  -9 28 0  -8.000669263803724 28.00021451717664 0  -7.001357138304037 28.00043802258367 0  -6.002082798248684 28.00067973533341 0  -5.002866256105285 28.00094934404521 0  -4.002904948190588 27.99951764025484 0  -3.002871821686167 27.99808552276287 0  -2.001800681009643 27.99816909781438 0  -1.000783260184342 27.99821680772385 0  0.0002079383135974869 27.99822989197528 0  1.001199735324049 27.99820868721881 0  2.002218945579514 27.99815262741019 0  3.003293050323636 27.99806024278991 0  4.003321976731578 27.99949107143452 0  5.003278205155367 28.00092189622448 0  6.002390987309012 28.00065961604885 0  7.001562219508696 28.00042483124456 0  8.00077168493935 28.
[...]
<PointData  Vectors="f_44-0"> 
<DataArray  type="Float64"  Name="f_44-0"  NumberOfComponents="3" format="ascii">0.0000000000000000e+00 0.0000000000000000e+00 0.0000000000000000e+00  2.8518650901051948e-07 -7.0190697257911419e+00 0.0000000000000000e+00  3.0572916742338139e-07 -7.0038768470612833e+00 0.0000000000000000e+00  5.7359374967081990e-07 -6.5138078465373033e+00 0.0000000000000000e+00  0.0000000000000000e+00 0.0000000000000000e+00 0.0000000000000000e+00  0.0000000000000000e+00 0.0000000000000000e+00 0.0000000000000000e+00  0.0000000000000000e+00 0.0000000000000000e+00 0.0000000000000000e+00  0.0000000000000000e+00 0.0000000000000000e+00 0.0000000000000000e+00  0.0000000000000000e+00 0.0000000000000000e+00 0.0000000000000000e+00  0.0000000000000000e+00 0.0000000000000000e+00 0.0000000000000000e+00  0.0000000000000000e+00 0.0000000000000000e+00 0.0000000000000000e+00  0.0000000000000000e+00 0.0000000000000000e+00 0.0000000000000000e+00  0.0000000000000000e+00 0.0000000000000000e+00 0.0000000000000000e+00  0.0000000000000000e+00 0.0000000000000000e+00 0.0000000000000000e+00  0.0000000000000000e+00 0.0000000000000000e+00 0.0000000000000000e+00  2.9229325584657542e-07 -7.0359742635589368e+00 0.0000000000000000e+00  3.0974590100072520e-07 -7.0200373136754308e+00 0.0000000000000000e+00  5.7826067593312125e-07 -6.5279015908608855e+00 0.0000000000000000e+00  0.0000000000000000e+00 0.0000000000000000e+00 0.0000000000000000e+00  0.0000000000000000e+00 0.0000000000000000e+00 0.0000000000000000e+00  -2.4205894993806449e-02 -6.6956166839010356e+00 0.0000000000000000e+00  1.6018426779161228e-03 -7.0088825382750448e+00 0.0000000000000000e+00  3.5317771272126805e-02 -6.7052781184955057e+00 0.0000000000000000e+00  1.9623288845743098e-03 -4.1756567643611980e-04 0.0000000000000000e+00  2.0697157005241077e-03 -1.0632283546405039e-03 0.0000000000000000e+00  1.1331701249083026e-03 -6.1295332607559368e-04 0.0000000000000000e+00  8.3786599105414264e-04 1.4993940413427954e-04 0.0000000000000000e+00  4.8242283567021210e-04 5.5951942322824365e-04 0.0000000000000000e+00  1.9657379747508265e-04 4.4840583676012606e-04 0.0000000000000000e+00  -9.7244627732869001e-05 -2.9001185864402122e-06 0.0000000000000000e+00  -3.3154271869260770e-04 -5.8156461443090049e-04 0.0000000000000000e+00  -6.8376537023069910e-04 -1.4644814761564117e-03 0.0000000000000000e+00  -1.2032317491823706e-03 -1.6600499708604533e-03 0.0000000000000000e+00  -2.0731242092842214e-03 -2.9019429779594025e-03 0.0000000000000000e+00  -2.5037780377701734e-02 -6.7113253983057666e+00 0.0000000000000000e+00  1.7095390271536965e-03 -7.0250621880808355e+00 0.0000000000000000e+00  3.5099047251834541e-02 -6.7214115391287930e+00 0.0000000000000000e+00  0.0000000000000000e+00 0.0000000000000000e+00 0.0000000000000000e+00  0.0000000000000000e+00 0.0000000000000000e+00 0.0000000000000000e+00  1.3733658052096824e-02 -6.7019585873591074e+00 0.0000000000000000e+00  -9.2139045191010939e-03 -6.9853821218862580e+00 0.0000000000000000e+00  1.4504876196973160e-02 -6.7064030106967278e+00 0.0000000000000000e+00  -1.4659742114958838e-03 -2.0956443059202278e-03 0.0000000000000000e+00  -5.6941731382096111e-05 2.7442686691137079e-04 0.0000000000000000e+00  2.2593474703140785e-04 2.1171196880958986e-03 0.0000000000000000e+00  9.4285434091330206e-05 2.1483918999973010e-03 0.0000000000000000e+00  -4.1252150977542001e-04 9.4174064124379292e-04 0.0000000000000000e+00  -5.7798752173242156e-04 -1.3658549285150374e-04 0.0000000000000000e+00  -4.0837874118356579e-04 -2.8342706077985630e-04 0.0000000000000000e+00  4.3355602885184993e-04 -9.2113980825891907e-04 0.0000000000000000e+00  5.6649596015337735e-04 -1.6173524980216687e-03 0.0000000000000000e+00  1.4914837994652757e-04 -7.1208385089961365e-04 0.0000000000000000e+00  -3.9471771181168397e-04 3.5245689485550042e-04 0.0000000000000000e+00  1.3444497231261508e-02 -6.7173091521617545e+00 0.0000000000000000e+00  -9.6631734872646268e-03 -7.0005296958301457e+00 0.0000000000000000e+00  1.3289623693466566e-02 -6.7215491790626762e+00 0.0000000000000000e+00  0.0000000000000000e+00 0.0000000000000000e+00 0.0000000000000000e+00  0.0000000000000000e+00 0.0000000000000000e+00 0.0000000000000000e+00  1.5649479070332605e-02 -6.7058099431452707e+00 0.0000000000000000e+00  -4.4041536880680071e-03 -6.9841030077175148e+00 0.0000000000000000e+00  1.4504066512491877e-02 -6.7013354943106336e+00 0.0000000000000000e+00  -3.4400144234241190e-03 2.6837738183061277e-03 0.0000000000000000e+00  -1.8318734164756722e-03 5.7508999979360032e-03 0.0000000000000000e+00  -1.7816957073969967e-03 4.6328660268369600e-03 0.0000000000000000e+00  -2.8888501385323693e-03 -8.1806421847265009e-04 0.0000000000000000e+00  -1.7683612026683671e-03 -3.2971255828895770e-03 0.0000000000000000e+00  -1.9098697272973520e-04 -1.7131031576242488e-03 0.0000000000000000e+00  1.0340971717021921e-03 -7.8320311730656963e-04 0.0000000000000000e+00  8.1988990895061375e-04 -4.6765066957725086e-04 0.0000000000000000e+00  1.4628492482629553e-03 1.6074825360547058e-04 0.0000000000000000e+00  2.3014400002414823e-03 -2.4190731881060567e-03 0.0000000000000000e+00  4.6173723359286271e-04 -5.2375756315639855e-03 0.0000000000000000e+00  1.7674561154432101e-02 -6.7196018853423274e+00 0.0000000000000000e+00  -4.5178115200637083e-03 -6.9981233956346394e+00 0.0000000000000000e+00  1.2462382898265376e-02 -6.7169677500891565e+00 0.0000000000000000e+00  0.0000000000000000e+00 0.0000000000000000e+00 0.0000000000000000e+00  0.0000000000000000e+00 0.0000000000000000e+00 0.0000000000000000e+00  1.5263739808729051e-02 -6.7076136386122869e+00 0.0000000000000000e+00  -3.9109212113600297e-03 -6.9889980207168421e+00 0.0000000000000000e+00  1.4619603961351334e-02 -6.7136248227358619e+00 0.0000000000000000e+00  -1.3454463189626365e-02 -1.7198511637343888e-03 0.0000000000000000e+00  -1.5866758560937281e-02 3.6675579578712798e-03 0.0000000000000000e+00  -5.4014310886336013e-03 -5.6484661222049775e-03 0.0000000000000000e+00  -4.9754356732030448e-03 -1.1500625090938703e-02 0.0000000000000000e+00  6.7311079758555466e-04 -6.2358477953029815e-03 0.0000000000000000e+00  2.3747135878803838e-03 -5.3429030431030545e-03 0.0000000000000000e+00  5.5892910926705237e-03 -1.0764178757355306e-02 0.0000000000000000e+00  5.2635544898774703e-03 -1.8124941087936444e-03 0.0000000000000000e+00  1.9930916045444245e-02 -6.6648684359958566e-03 0.0000000000000000e+00  2.1510781031456608e-02 -1.6745904447601292e-02 0.0000000000000000e+00  1.3235013095652649e-02 -1.5067360692205344e-02 0.0000000000000000e+00  1.8068996113976759e-02 -6.7182759579461182e+00 0.0000000000000000e+00  -1.7426638838575041e-03 -6.9956592804238023e+00 0.0000000000000000e+00  1.3854888406968429e-02 -6.7139414237302724e+00 0.0000000000000000e+00  0.0000000000000000e+00 0.0000000000000000e+00 0.0000000000000000e+00  0.0000000000000000e+00 0.0000000000000000e+00 0.0000000000000000e+00  1.3853443483507873e-02 -6.7034227598882090e+00 0.0000000000000000e+00  -9.4372616275137291e-03 -6.9818031603706530e+00 0.0000000000000000e+00  1.0371202275372990e-03 -6.6981264144900363e+00 0.0000000000000000e+00  -5.9318364440646108e-02 2.3904451732387415e-02 0.0000000000000000e+00  -4.5979946165894660e-02 1.5938125853432655e-02 0.0000000000000000e+00  -2.4585425730887272e-02 9.2320022632508998e-03 0.0000000000000000e+00  2.2354798783350656e-03 -2.0791628486065385e-02 0.0000000000000000e+00  2.2337544011919591e-03 -8.0880890680669667e-03 0.0000000000000000e+00  5.4638396137790283e-03 -5.7462165332623936e-03 0.0000000000000000e+00  8.3275823320378608e-03 -6.1693719594437431e-03 0.0000000000000000e+00  7.3524261143320929e-03 -6.8785751142290625e-03 0.0000000000000000e+00  3.9832633655569265e-02 -1.1629421495082837e-02 0.0000000000000000e+00  4.8853534971787863e-02 -2.0874614381889416e-02 0.0000000000000000e+00  5.0612688795019817e-02 -2.4155601515036762e-02 0.0000000000000000e+00  2.7630208942391696e-02 -6.7122607163357300e+00 0.0000000000000000e+00  -1.8554173281608205e-04 -6.9909053619091734e+00 0.0000000000000000e+00  1.4194284060808830e-02 -6.7101123262165023e+00 0.0000000000000000e+00  0.0000000000000000e+00 0.0000000000000000e+00 0.0000000000000000e+00  0.0000000000000000e+00 0.0000000000000000e+00 0.0000000000000000e+00  1.4388684619280716e-02 -6.6988802989746183e+00 0.0000000000000000e+00  -7.8906819830580829e-03 -6.9765418525315415e+00 0.0000000000000000e+00  6.1107640887046212e-03 -6.6957702488336484e+00 0.0000000000000000e+00  -2.8157123244065184e-02 1.5958201063100398e-02 0.0000000000000000e+00  -3.8881613889806058e-02 1.8350916676379433e-02 0.0000000000000000e+00  -5.4090949680831314e-02 3.4072240342766444e-02 0.0000000000000000e+00  -2.1704161148299414e-02 -2.8676356803745438e-02 0.0000000000000000e+00  -7.6086425912923646e-03 -2.8145429511415625e-02 0.0000000000000000e+00  2.6553775386250447e-03 -2.5522061627802881e-02 0.0000000000000000e+00  9.6797310139619137e-03 -2.5950197355709734e-02 0.0000000000000000e+00  8.4028241725732332e-03 -3.0086071438544866e-02 0.0000000000000000e+00  1.8865865963320134e-02 -1.7736611476062428e-02 0.0000000000000000e+00  3.3502507145913400e-02 -1.3389025894413058e-02 0.0000000000000000e+00  4.5478518787568235e-02 -1.3240731823018924e-03 0.0000000000000000e+00  2.9263286862277950e-02 -6.7104353320734518e+00 0.0000000000000000e+00  -2.6421464355924807e-03 -6.9886235142976467e+00 0.0000000000000000e+00  1.3099840320184155e-02 -6.7077000466270000e+00 0.0000000000000000e+00  0.0000000000000000e+00 0.0000000000000000e+00 0.0000000000000000e+00  0.0000000000000000e+00 0.0000000000000000e+00 0.0000000000000000e+00  1.5342381405317905e-02 -6.6956584530552368e+00 0.0000000000000000e+00  -6.0341335365268981e-03 -6.9729586606541964e+00 0.0000000000000000e+00  9.2138056401799995e-03 -6.6922668903251861e+00 0.0000000000000000e+00  7.3262631975536657e-03 1.8312124292376769e-03 0.0000000000000000e+00  6.6354602854867795e-04 -7.4869047004159743e-04 0.0000000000000000e+00  -2.9627257660244416e-03 -1.1884146829254056e-02 0.0000000000000000e+00  4.7145140919378504e-04 -3.8902648048574386e-02 0.0000000000000000e+00  1.2032567197417382e-03 -3.7897390748885589e-02 0.0000000000000000e+00  3.1355036154244250e-03 -3.6372994803888163e-02 0.0000000000000000e+00  5.7761859707502299e-03 -3.5892991746586292e-02 0.0000000000000000e+00  7.2624510564122660e-03 -3.4620080618384147e-02 0.0000000000000000e+00  -5.3087354033073105e-03 -5.7459182779902914e-04 0.0000000000000000e+00  1.1751311083545185e-03 1.8932763253289809e-03 0.0000000000000000e+00  4.7446547534347070e-03 1.1081968839462587e-03 0.0000000000000000e+00  1.8159165729892235e-02 -6.7098292238629442e+00 0.0000000000000000e+00  -3.9149615926456953e-03 -6.9886948759201344e+00 0.0000000000000000e+00  1.2191931690825148e-02 -6.7074757923648116e+00 0.0000000000000000e+00  0.0000000000000000e+00 0.0000000000000000e+00 0.0000000000000000e+00  0.0000000000000000e+00 0.0000000000000000e+00 0.0000000000000000e+00  1.6025422409674004e-02 -6.6934280223130962e+00 0.0000000000000000e+00  -4.9783915941357948e-03 -6.9704793019293305e+00 0.0000000000000000e+00  1.1643730919613980e-02 -6.6907416029806157e+00 0.0000000000000000e+00  2.7042853460086943e-02 -1.0812971722133710e-02 0.0000000000000000e+00  2.1918937671658305e-02 -1.2743542208049871e-02 0.0000000000000000e+00  1.6860030901263819e-02 -1.4004992812531848e-02 0.0000000000000000e+00  9.8830837567607361e-04 -3.7671332720691481e-02 0.0000000000000000e+00  1.3329692767871993e-03 -4.1277592580402610e-02 0.0000000000000000e+00  3.2857613509271293e-03 -4.1713681620450069e-02 0.0000000000000000e+00  5.4093392399997449e-03 -4.1227081249009263e-02 0.0000000000000000e+00  3.8681789479356478e-03 -3.8408475695388015e-02 0.0000000000000000e+00  -2.5749904989115717e-02 1.0316622729118274e-02 0.0000000000000000e+00  -2.1197824764958899e-02 1.0978183148267198e-02 0.0000000000000000e+00  -1.6396110597261905e-02 1.3731417603686437e-02 0.0000000000000000e+00  1.1698153634665984e-02 -6.7112248737226912e+00 0.0000000000000000e+00  -5.7070166843412656e-03 -6.9890752013497206e+00 0.0000000000000000e+00  1.1801920542617242e-02 -6.7079181788339417e+00 0.0000000000000000e+00  0.0000000000000000e+00 0.0000000000000000e+00 0.0000000000000000e+00  0.0000000000000000e+00 0.0000000000000000e+00 0.0000000000000000e+00  1.6212809508807473e-02 -6.6911617221040398e+00 0.0000000000000000e+00  -4.9905729590106508e-03 -6.9678978378765306e+00 0.0000000000000000e+00  1.2008410059248065e-02 -6.6889580384561445e+00 0.0000000000000000e+00  3.7473881492471980e-02 -1.8064268724383856e-02 0.0000000000000000e+00  3.4661181677030847e-02 -1.8420829612373259e-02 0.0000000000000000e+00  3.2775694999354531e-02 -1.9754642856886922e-02 0.0000000000000000e+00  2.5051307419296153e-03 -4.3622614923914130e-02 0.0000000000000000e+00  9.6836820679167184e-04 -4.6193939866892561e-02 0.0000000000000000e+00  2.7613791704943695e-03 -4.6636870227249827e-02 0.0000000000000000e+00  4.5456993499665690e-03 -4.5978732902239132e-02 0.0000000000000000e+00  1.8288709270646625e-03 -4.2420369347142071e-02 0.0000000000000000e+00  -3.5523359208838569e-02 1.7445820271528079e-02 0.0000000000000000e+00  -3.2671734102809831e-02 1.7691653455600687e-02 0.0000000000000000e+00  -3.0660349534989018e-02 1.8715593278695670e-02 0.0000000000000000e+00  9.7120152700164008e-03 -6.7104231287713176e+00 0.0000000000000000e+00  -5.3504899353810651e-03 -6.9876886831362688e+00 0.0000000000000000e+00  1.2148772388024070e-02 -6.7068655807471620e+00 0.0000000000000000e+00  0.0000000000000000e+00 0.0000000000000000e+00 0.0000000000000000e+00  0.0000000000000000e+00 0.0000000000000000e+00 0.0000000000000000e+00  1.5996108751570939e-02 -6.6880925957304385e+00 0.0000000000000000e+00  -5.7082012155097667e-03 -6.9643992799706629e+00 0.0000000000000000e+00  1.1272708475043462e-02 -6.6859928950598375e+00 0.0000000000000000e+00  4.0691456704911595e-02 -2.1134202807692778e-02 0.0000000000000000e+00  3.9800204937114239e-02 -2.1134485537389659e-02 0.0000000000000000e+00  3.9527495196985375e-02 -2.1906210953031975e-02 0.0000000000000000e+00  2.3967565024860496e-03 -4.8226001869584180e-02 0.0000000000000000e+00  3.1463731679517168e-04 -5.1349687063690572e-02 0.0000000000000000e+00  2.0486907927051239e-03 -5.1874414440138586e-02 0.0000000000000000e+00  3.8913630405254204e-03 -5.1002931438884874e-02 0.0000000000000000e+00  1.0688273885753074e-03 -4.6676199558202756e-02 0.0000000000000000e+00  -3.7967366320326261e-02 2.0497193976616670e-02 0.0000000000000000e+00  -3.7109831756425946e-02 2.0139776037264672e-02 0.0000000000000000e+00  -3.6969438291271216e-02 2.0466918086905466e-02 0.0000000000000000e+00  9.8590170374910080e-03 -6.7068012372882073e+00 0.0000000000000000e+00  -4.3201401542491266e-03 -6.9836598958701721e+00 0.0000000000000000e+00  1.2828917745990860e-02 -6.7034168152005478e+00 0.0000000000000000e+00  -2.3181256683688493e-10 -3.4134069039731832e-10 0.0000000000000000e+00  0.0000000000000000e+00 0.0000000000000000e+00 0.0000000000000000e+00  1.5556308772926375e-02 -6.6840115362861425e+00 0.0000000000000000e+00  -6.6278690064575556e-03 -6.9598541260466682e+00 0.0000000000000000e+00  1.0264610181989649e-02 -6.6817810518241645e+00 0.0000000000000000e+00  3.8239097727881727e-02 -2.0954650128453080e-02 0.0000000000000000e+00  3.8900517887830291e-02 -2.0736461330466548e-02 0.0000000000000000e+00  4.0173484997073329e-02 -2.1098397684814037e-02 0.0000000000000000e+00  1.8763325286067132e-03 -5.3004055830741505e-02 0.0000000000000000e+00  -2.7503931718918261e-04 -5.6574694902049749e-02 0.0000000000000000e+00  1.4196104587183586e-03 -5.7191237246363130e-02 0.0000000000000000e+00  3.2853302382084737e-03 -5.6126795081268381e-02 0.0000000000000000e+00  8.0924088256688386e-04 -5.1226327795498829e-02 0.0000000000000000e+00  -3.4873282969973295e-02 2.0164463536926976e-02 0.0000000000000000e+00  -3.5582015408659282e-02 1.9636712602937673e-02 0.0000000000000000e+00  -3.6901456000189396e-02 1.9712082147051585e-02 0.0000000000000000e+00  1.1765542920950294e-02 -6.7005480017922938e+00 0.0000000000000000e+00  -2.8602430780411310e-03 -6.9770579030517226e+00 0.0000000000000000e+00  1.3696274060701539e-02 -6.6975694481666395e+00 0.0000000000000000e+00  0.0000000000000000e+00 0.0000000000000000e+00 0.0000000000000000e+00  0.0000000000000000e+00 0.0000000000000000e+00 0.0000000000000000e+00  1.5049795202890218e-02 -6.6791707653332590e+00 0.0000000000000000e+00  -7.3879353610794172e-03 -6.9546006988233531e+00 0.0000000000000000e+00  9.5083069252033386e-03 -6.6766982603750042e+00 0.0000000000000000e+00  3.1575621270923192e-02 -1.8140871721098267e-02 0.0000000000000000e+00  3.3500135170661395e-02 -1.7868106201336043e-02 0.0000000000000000e+00  3.5920262859799650e-02 -1.8037696518389365e-02 0.0000000000000000e+00  1.3160373092418359e-03 -5.7350331117244045e-02 0.0000000000000000e+00  -5.5554803765924031e-04 -6.1459662279555002e-02 0.0000000000000000e+00  9.2217123228729536e-04 -6.2177932891853950e-02 0.0000000000000000e+00  2.6448448813903374e-03 -6.0999431409971903e-02 0.0000000000000000e+00  7.5561469663794800e-04 -5.5684376485585961e-02 0.0000000000000000e+00  -2.7677528815281443e-02 1.7220825854625962e-02 0.0000000000000000e+00  -2.9636646906520559e-02 1.6703859771239993e-02 0.0000000000000000e+00  -3.2106195999661219e-02 1.6627400724452481e-02 0.0000000000000000e+00  1.4499451062638362e-02 -6.6922472689186598e+00 0.0000000000000000e+00  -1.3438194475914565e-03 -6.9685052976225803e+00 0.0000000000000000e+00  1.4609347639995126e-02 -6.6898202511440505e+00 0.0000000000000000e+00  0.0000000000000000e+00 0.0000000000000000e+00 0.0000000000000000e+00  0.0000000000000000e+00 0.0000000000000000e+00 0.0000000000000000e+00  1.4589886939817880e-02 -6.6741019593243562e+00 0.0000000000000000e+00  -7.7734060044987834e-03 -6.9492463715071162e+00 0.0000000000000000e+00  9.3007126190468980e-03 -6.6713721030246420e+00 0.0000000000000000e+00  2.1996894438208663e-02 -1.3386487473368340e-02 0.0000000000000000e+00  2.4859428818120338e-02 -1.3147146564610209e-02 0.0000000000000000e+00  2.8067942092102092e-02 -1.3201945864720540e-02 0.0000000000000000e+00  8.8477062202551259e-04 -6.0792236711889040e-02 0.0000000000000000e+00  -5.0473848876742282e-04 -6.5447435044782509e-02 0.0000000000000000e+00  5.6761340465802672e-04 -6.6293347504868816e-02 0.0000000000000000e+00  1.9372157181385644e-03 -6.5076366978201128e-02 0.0000000000000000e+00  7.2558356215609524e-04 -5.9517763357533358e-02 0.0000000000000000e+00  -1.7693744584954520e-02 1.2356603696903966e-02 0.0000000000000000e+00  -2.0579626585513357e-02 1.1944873584184076e-02 0.0000000000000000e+00  -2.3828723426884739e-02 1.1829010211088106e-02 0.0000000000000000e+00  1.7417130879305475e-02 -6.6828210401637049e+00 0.0000000000000000e+00  -8.2393174080134241e-05 -6.9589072974694064e+00 0.0000000000000000e+00  1.5435229194255355e-02 -6.6809771544681196e+00 0.0000000000000000e+00  0.0000000000000000e+00 0.0000000000000000e+00 0.0000000000000000e+00  0.0000000000000000e+00 0.0000000000000000e+00 0.0000000000000000e+00  1.4249132000018018e-02 -6.6694584684742084e+00 0.0000000000000000e+00  -7.6880078666668270e-03 -6.9444927844073376e+00 0.0000000000000000e+00  9.7466761215504946e-03 -6.6665229734244829e+00 0.0000000000000000e+00  1.0644601798662869e-02 -7.3635210920235733e-03 0.0000000000000000e+00  1.4114291064236636e-02 -7.1813162380765889e-03 0.0000000000000000e+00  1.7754757471558871e-02 -7.1468558838707653e-03 0.0000000000000000e+00  6.4046905339770223e-04 -6.2928370227654823e-02 0.0000000000000000e+00  -1.5457154647672452e-04 -6.8056012144206562e-02 0.0000000000000000e+00  3.5376752656445605e-04 -6.9033823552512377e-02 0.0000000000000000e+00  1.1867338991963111e-03 -6.7846900016284975e-02 0.0000000000000000e+00  6.6531298780405073e-04 -6.2228166514135930e-02 0.0000000000000000e+00  -6.0842913300897588e-03 6.2496857190912714e-03 0.0000000000000000e+00  -9.5643160040978226e-03 5.9776746020977749e-03 0.0000000000000000e+00  -1.324