<?xml version="1.0"?>
<VTKFile type="UnstructuredGrid"  version="0.1"  >
<UnstructuredGrid>
<Piece  NumberOfPoints="589" NumberOfCells="1080">
<Points>
<DataArray  type="Float64"  NumberOfComponents="3"  format="ascii">-9 0 0  -8 0 0  -7 0 0  -6 0 0  -5 0 0  -4 0 0  -3 0 0  -2 0 0  -1 0 0  0 0 0  1 0 0  2 0 0  3 0 0  4 0 0  5 0 0  6 0 0  7 0 0  8 0 0  9 0 0  -9 2 0  -7.999993212537402 2.000009434076869 0  -6.99998581165726 2.000017744863093 0  -5.999976362322739 2.000024022876232 0  -4.999961587740421 2.000027877561851 0  -3.999976522139078 2.000020724619254 0  -2.999991923878697 2.00001413858099 0  -1.999999598181077 2.000008038586932 0  -1.000001201652393 2.000003198324683 0  1.016104451342547e-06 2.000001003718145 0  1.000003608517819 2.00000226983052 0  2.000003267983519 2.000006609817213 0  2.99999781529695 2.000011874492423 0  3.999986689838962 2.000017271675166 0  4.999970860842932 2.000018690461652 0  5.999982750305117 2.000018287752753 0  6.999989868067247 2.000014252718324 0  7.999995189569348 2.000007754208897 0  9 2 0  -9.000000000009988 4 0  -7.999988878600658 4.00002336181242 0  -6.999979817123522 4.000043621195123 0  -5.999974025563878 4.00005773926544 0  -4.999971276101583 4.000062821163311 0  -3.999992654683122 4.000059388944181 0  -3.000007104093662 4.000041126062155 0  -2.000011175481687 4.000017423879156 0  -1.000006245841055 3.999998325910404 0  3.604021305175491e-06 3.999990428612428 0  1.000013741149353 3.999995850401896 0  2.000019672094074 4.000011087663902 0  3.00001693550783 4.000031653021552 0  4.000004213450438 4.000051902519004 0  4.999984748706825 4.000057279835695 0  5.999984587341939 4.000051105053292 0  6.999986921095932 4.000038359765649 0  7.999992423274401 4.000020531668616 0  9 4 0  -9 6 0  -7.999976304283644 6.000049701611992 0  -6.999960742856532 6.000094064930029 0  -5.999959520477346 6.000127602380053 0  -4.99997439768277 6.000145075421223 0  -4.000015560339839 6.000117911996258 0  -3.000034350933638 6.00006167904958 0  -2.000027085091608 6.000002844133594 0  -1.00000894836739 5.999970243764905 0  9.217302482443822e-06 5.999963498151931 0  1.000025346572053 5.999973485755339 0  2.000037506437113 6.000001414480445 0  3.000042028219693 6.00004857722046 0  4.000032654554166 6.000097089268402 0  4.999998752473881 6.000120076043753 0  5.99997644383243 6.000110206213647 0  6.999971299874851 6.000082800118589 0  7.999981357995948 6.000044125361168 0  9 6 0  -9 8 0  -7.999931186561454 8.00009740526939 0  -6.999884308388 8.000187823552324 0  -5.999880614968387 8.000261734253291 0  -4.999938226186435 8.000303422331779 0  -4.000017739530008 8.000179003691885 0  -3.000002437456535 8.000032936361427 0  -1.999972091085194 7.999962295320407 0  -0.9999693858597574 7.999954947969941 0  1.27672773919195e-05 7.999952945948252 0  0.9999990587976065 7.999945978250173 0  2.0000037160813 7.999974031882287 0  3.000036772918452 8.000021959468611 0  4.00004754937143 8.00014173200624 0  4.999971614674529 8.000276853309579 0  5.999899633727658 8.000239467288312 0  6.999894861600297 8.000172326325675 0  7.999935949833188 8.000089529844473 0  9 8 0  -9 10 0  -7.999798273676197 10.00017310034974 0  -6.999635077344711 10.00034767980232 0  -5.999556437026619 10.00052486759584 0  -4.999626341261406 10.00070502515935 0  -3.99975304400473 10.00030207171465 0  -2.99973141926309 9.999955577989848 0  -1.999781987887453 10.00001722615545 0  -0.9998929067617077 10.0000370857671 0  2.605287459223026e-05 10.0000419100143 0  0.9999461778353652 10.00004133445952 0  1.999840691943525 10.00004259308814 0  2.999746745393631 9.999921820227202 0  3.999756760526022 10.0002358338085 0  4.999618526327374 10.00064979806723 0  5.999553879929976 10.00048783080771 0  6.999634914259182 10.00032452049761 0  7.999798650159176 10.00016189669327 0  9 10 0  -9 12 0  -7.99951098926718 12.00024297212685 0  -6.999047211875201 12.00049725996112 0  -5.998637287685179 12.00077639626292 0  -4.998316516816641 12.0010992886678 0  -3.998382370066373 12.00036263765238 0  -2.998323461308312 11.99963266569432 0  -1.998828594733825 11.99972383093382 0  -0.999394056094694 11.99977508651851 0  1.670287174536325e-05 11.9997885012834 0  0.9994196894406473 11.99976281088376 0  1.998827915138239 11.99968964909574 0  2.998266820335733 11.99954781505437 0  3.998323931766511 12.00029844632564 0  4.998284821586626 12.00105462538944 0  5.998624878606021 12.0007417537096 0  6.999043899329894 12.00047408362727 0  7.999510735632622 12.00023142615923 0  9 12 0  -9 14 0  -7.999122250472433 14.00026768653576 0  -6.998243099557834 14.00054762884241 0  -5.99736009861052 14.00085316671857 0  -4.996467639784668 14.0011997525252 0  -3.996460236602827 14.00033554492167 0  -2.996454915827875 13.99946012659518 0  -1.997634870174096 13.9995902675232 0  -0.9988005429861638 13.99966462114459 0  3.85090832064246e-05 13.99969166545429 0  0.998872923357329 13.99967435472143 0  1.997693757020601 13.99961165404425 0  2.996493687362899 13.99950005422366 0  3.99648076867994 14.00032470333057 0  4.996476433398422 14.00114377418966 0  5.997378873799565 14.00081524400659 0  6.998260952880891 14.00052381839498 0  7.999132693968432 14.00025615111562 0  9 14 0  -9 16 0  -7.998738403867638 16.00024344803119 0  -6.997453213163861 16.00049576351275 0  -5.996118852515442 16.0007659669588 0  -4.994705404867027 16.00106319217755 0  -3.994657257239958 16.00032012332923 0  -2.994703791087968 15.99958094797121 0  -1.996500086980204 15.99968041100501 0  -0.9982267543642972 15.99974383980264 0  7.883984918478061e-05 15.99977264968421 0  0.9983812377573628 15.99976784803661 0  1.996644870639899 15.99972964142589 0  2.99483186153276 15.99965761074475 0  3.994777649516198 16.00034366918257 0  4.994823168653064 16.00103026082031 0  5.996212382709273 16.00074056122137 0  6.997518195133795 16.00047869186891 0  7.998771703654477 16.00023490111136 0  9 16 0  -9 18 0  -7.998448179327685 18.00018375763292 0  -6.996858658580371 18.00037241818535 0  -5.995191790574653 18.00057079452487 0  -4.993403918455081 18.00078345017309 0  -3.993329976478359 18.00031515445099 0  -2.993401200591018 17.99984743302708 0  -1.995646119329792 17.99991514313704 0  -0.9977831154181414 17.99996200182641 0  0.000131861533185563 17.9999885402754 0  0.9980455071418455 17.99999540880852 0  1.995904578549038 17.99998335126433 0  2.993653353213693 17.99995330978253 0  3.993577280248996 18.00035887120283 0  4.993648750448043 18.00076310343828 0  5.995377310313745 18.00055470918927 0  6.996983288149003 18.00036134391654 0  7.998510789934882 18.00017812474409 0  9 18 0  -9 20 0  -7.99830805536013 20.00010444270732 0  -6.996572114837128 20.00021022435558 0  -5.994746485186955 20.00031853805399 0  -4.9927820503029 20.00043026293683 0  -3.992697259868875 20.00031442984692 0  -2.992780396071323 20.00019901214621 0  -1.995226408017609 20.00023361206697 0  -0.9975486074557761 20.00026178430738 0  0.000190115563231473 20.00028344744437 0  0.9979291108592979 20.00029899766602 0  1.995607784700365 20.00030929403775 0  2.993163412224063 20.00031569889919 0  3.993079158291508 20.00036744624933 0  4.993161789615393 20.00041806829308 0  5.995030330237616 20.00030877996933 0  6.996760918885387 20.00020342760493 0  7.998402336051838 20.00010095806049 0  8.999999999958259 19.9999999999996 0  -9 22 0  -7.998343272470654 22.00001975666185 0  -6.996642965491729 22.00003789492322 0  -5.994854127508824 22.00005263201607 0  -4.992929047627807 22.0000618523775 0  -3.99284615655009 22.00031775606617 0  -2.992928316032657 22.00057387843709 0  -1.995304518418197 22.00057789883366 0  -0.9975590151870869 22.00058771901797 0  0.0002472503044823388 22.00060292049684 0  0.9980551606014476 22.00062370499255 0  1.995805666696429 22.00065088320546 0  2.993438031821665 22.00068588677876 0  3.993357617643597 22.00037101883264 0  4.993438802847927 22.00005515555695 0  5.99523301016365 22.00004710037067 0  6.996893954209189 22.00003396867963 0  7.998468292423155 22.00001772308353 0  9 22 0  -9 24 0  -7.998552157492112 23.9999415419032 0  -6.997066563336364 23.99987916460665 0  -5.995504450258304 23.99980878012924 0  -4.993824971488744 23.99972596946359 0  -3.993754014309263 24.00032356819837 0  -2.993825260951382 24.00092113142226 0  -1.99587192202457 24.0008988834415 0  -0.9978136170678572 24.00089202973294 0  0.0002978543511148007 24.00089995994456 0  0.9984120728174559 24.00092272656651 0  1.996478694798497 24.00096104257074 0  2.994446148958824 24.00101628674026 0  3.994378944894566 24.00036979046502 0  4.99444843642411 23.99972235052459 0  5.995966669954628 23.99980572107606 0  6.997372182197049 23.99987696059895 0  7.998704213239598 23.99994039059126 0  9 24 0  -9 26 0  -7.998911319866072 25.99987901449607 0  -6.997794788081531 25.99975246655644 0  -5.996621904368815 25.99961462453451 0  -4.99536276094532 25.99945942799366 0  -3.99531116904991 26.00033052612272 0  -2.995363913855418 26.001201426263 0  -1.996861551526891 26.00115805937763 0  -0.9982819536447681 26.00113697756313 0  0.0003375728626092921 26.00113742161035 0  0.9989606531188406 26.00115930967218 0  1.99755099285723 26.00120323436095 0  2.996071526354736 26.00127046594145 0  3.99602449837301 26.00036431289384 0  4.99607479730061 25.99945737360255 0  5.997149128919439 25.99961288021038 0  6.998143068038785 25.99975120571565 0  7.999084503662803 25.99987835435924 0  9 26 0  -9 28 0  -7.999381053123868 27.99983874985011 0  -6.998746889980218 27.9996709490452 0  -5.998082003958022 27.99948987936929 0  -4.99737015204291 27.9992884925704 0  -3.997342696378081 28.0003376832012 0  -2.997371682996121 28.00138658770787 0  -1.998162427226578 28.00132786328997 0  -0.9989110435576418 28.00129558370139 0  0.0003631858959544765 28.00128886351822 0  0.9996414629556376 28.00130749212071 0  1.998905071112319 28.00135193256632 0  2.99813497362925 28.00142332216648 0  3.99811274454246 28.00035551914472 0  4.998139009680416 27.99928715326264 0  5.998650977946754 27.9994887964388 0  6.999122592487617 27.99967018847505 0  7.99
[...]
<PointData  Vectors="f_44-0"> 
<DataArray  type="Float64"  Name="f_44-0"  NumberOfComponents="3" format="ascii">0.0000000000000000e+00 0.0000000000000000e+00 0.0000000000000000e+00  4.3184969919476323e-09 -1.0615172744007634e+01 0.0000000000000000e+00  1.1873982987312871e-07 -1.1681745205547404e+01 0.0000000000000000e+00  3.0262528707839824e-08 -1.0934930122748122e+01 0.0000000000000000e+00  0.0000000000000000e+00 0.0000000000000000e+00 0.0000000000000000e+00  0.0000000000000000e+00 0.0000000000000000e+00 0.0000000000000000e+00  0.0000000000000000e+00 0.0000000000000000e+00 0.0000000000000000e+00  0.0000000000000000e+00 0.0000000000000000e+00 0.0000000000000000e+00  0.0000000000000000e+00 0.0000000000000000e+00 0.0000000000000000e+00  0.0000000000000000e+00 0.0000000000000000e+00 0.0000000000000000e+00  0.0000000000000000e+00 0.0000000000000000e+00 0.0000000000000000e+00  0.0000000000000000e+00 0.0000000000000000e+00 0.0000000000000000e+00  0.0000000000000000e+00 0.0000000000000000e+00 0.0000000000000000e+00  0.0000000000000000e+00 0.0000000000000000e+00 0.0000000000000000e+00  0.0000000000000000e+00 0.0000000000000000e+00 0.0000000000000000e+00  1.7518681939063431e-09 -1.0580466688737284e+01 0.0000000000000000e+00  1.1235715397209666e-07 -1.1650185411877338e+01 0.0000000000000000e+00  2.4218394695299606e-08 -1.0905207222725670e+01 0.0000000000000000e+00  0.0000000000000000e+00 0.0000000000000000e+00 0.0000000000000000e+00  0.0000000000000000e+00 0.0000000000000000e+00 0.0000000000000000e+00  -2.4754949161234245e-03 -1.0823809167745457e+01 0.0000000000000000e+00  -1.9307940366608541e-02 -1.1655701707041471e+01 0.0000000000000000e+00  -4.5007793988349448e-02 -1.0832366849868883e+01 0.0000000000000000e+00  -9.0452656815845161e-04 7.5275325103246000e-04 0.0000000000000000e+00  -1.2201722801120623e-03 1.1703971030085128e-03 0.0000000000000000e+00  -7.1400083462487714e-04 7.2150467093875267e-04 0.0000000000000000e+00  -5.9679813052482494e-04 3.1949259915749651e-05 0.0000000000000000e+00  -3.3780986970766299e-04 -3.6201802865348819e-04 0.0000000000000000e+00  -7.6044719963808818e-05 -3.1813381672782140e-04 0.0000000000000000e+00  1.9141330560684414e-04 3.6126844825228857e-05 0.0000000000000000e+00  3.5916560078006989e-04 5.3144734637224262e-04 0.0000000000000000e+00  5.2450723311538172e-04 1.2620062313924495e-03 0.0000000000000000e+00  7.0663447829012998e-04 1.4704398976731631e-03 0.0000000000000000e+00  1.0711520513215578e-03 2.2993626572009223e-03 0.0000000000000000e+00  -3.1214631145486658e-03 -1.0795080840825548e+01 0.0000000000000000e+00  -2.0591020523697285e-02 -1.1628352090793603e+01 0.0000000000000000e+00  -4.6943087202803005e-02 -1.0803890899874018e+01 0.0000000000000000e+00  0.0000000000000000e+00 0.0000000000000000e+00 0.0000000000000000e+00  0.0000000000000000e+00 0.0000000000000000e+00 0.0000000000000000e+00  -1.3250031912011552e-02 -1.0833836356495894e+01 0.0000000000000000e+00  -1.7260006123716067e-02 -1.1692100940239692e+01 0.0000000000000000e+00  -3.6880042896584239e-02 -1.0818408491133987e+01 0.0000000000000000e+00  1.6031736652300629e-03 2.6065584554454662e-03 0.0000000000000000e+00  1.7408257212933140e-04 7.0507215479360616e-04 0.0000000000000000e+00  -2.7813499218591668e-04 -1.0127654071665148e-03 0.0000000000000000e+00  -2.4847029462237433e-04 -1.3925679960955263e-03 0.0000000000000000e+00  2.1372994383139890e-04 -7.4143866718233951e-04 0.0000000000000000e+00  4.8276847258735354e-04 -2.6442597692009447e-05 0.0000000000000000e+00  4.9157243463147286e-04 1.8094331487581019e-04 0.0000000000000000e+00  -7.6841819430211190e-05 9.0248199786358658e-04 0.0000000000000000e+00  -2.4490100535595435e-04 1.7518546898494679e-03 0.0000000000000000e+00  -1.5547226792482467e-04 1.4132302734450790e-03 0.0000000000000000e+00  -5.3818065811931058e-05 7.9375596581617068e-04 0.0000000000000000e+00  -1.3470149745975492e-02 -1.0798708476868505e+01 0.0000000000000000e+00  -1.7708242750930293e-02 -1.1658335908266078e+01 0.0000000000000000e+00  -3.7700283599773128e-02 -1.0783898893463126e+01 0.0000000000000000e+00  0.0000000000000000e+00 0.0000000000000000e+00 0.0000000000000000e+00  0.0000000000000000e+00 0.0000000000000000e+00 0.0000000000000000e+00  -9.3013550375628893e-03 -1.0823438034294449e+01 0.0000000000000000e+00  -9.9070455878238015e-03 -1.1691969217398629e+01 0.0000000000000000e+00  -2.6195864740157119e-02 -1.0808042519207575e+01 0.0000000000000000e+00  3.0472393904434907e-03 1.2060909749554961e-04 0.0000000000000000e+00  1.1480904853499267e-03 -2.6774809802529347e-03 0.0000000000000000e+00  8.1093338622278402e-04 -2.6599332212931962e-03 0.0000000000000000e+00  1.7857710232423373e-03 7.0904119393306166e-04 0.0000000000000000e+00  1.1878311462918283e-03 2.1324673615969341e-03 0.0000000000000000e+00  2.2783207275824954e-04 8.2572846589324116e-04 0.0000000000000000e+00  -4.7719205248335201e-04 2.6042409607338133e-04 0.0000000000000000e+00  -1.3607337680043022e-04 4.5199898032596982e-04 0.0000000000000000e+00  -5.6154121036567121e-04 7.3141727386301727e-04 0.0000000000000000e+00  -1.3810068849971643e-03 3.4746541297663337e-03 0.0000000000000000e+00  -5.5486545671356235e-04 5.9760190681001054e-03 0.0000000000000000e+00  -1.3000415415852623e-02 -1.0790906024839051e+01 0.0000000000000000e+00  -1.4862566578866121e-02 -1.1662201156238801e+01 0.0000000000000000e+00  -3.1663443367278069e-02 -1.0785069550588966e+01 0.0000000000000000e+00  0.0000000000000000e+00 0.0000000000000000e+00 0.0000000000000000e+00  0.0000000000000000e+00 0.0000000000000000e+00 0.0000000000000000e+00  -7.0456731615366162e-03 -1.0826789861068178e+01 0.0000000000000000e+00  -6.1336189497547535e-03 -1.1691058601126121e+01 0.0000000000000000e+00  -2.2128322417146417e-02 -1.0808417255204326e+01 0.0000000000000000e+00  1.1262063183069264e-02 6.1215512963858137e-03 0.0000000000000000e+00  1.2000693101756608e-02 -7.1561020809295613e-05 0.0000000000000000e+00  3.9653994551754309e-03 4.9852585961205282e-03 0.0000000000000000e+00  4.1321262497390557e-03 8.4757515248039070e-03 0.0000000000000000e+00  -2.4361604452575268e-04 4.1554182813684599e-03 0.0000000000000000e+00  -1.8137107575003169e-03 3.3889903821244976e-03 0.0000000000000000e+00  -4.4352894033812366e-03 7.3295547052753462e-03 0.0000000000000000e+00  -4.1598834469590276e-03 1.0901073305119675e-03 0.0000000000000000e+00  -1.4740998723490896e-02 5.5134475303187389e-03 0.0000000000000000e+00  -1.5758172274956437e-02 1.4969395867374419e-02 0.0000000000000000e+00  -1.0727610719186636e-02 1.5814006622736201e-02 0.0000000000000000e+00  -1.0516275305394849e-02 -1.0793328051223902e+01 0.0000000000000000e+00  -8.2756319117597218e-03 -1.1661175078249759e+01 0.0000000000000000e+00  -2.4093764702224647e-02 -1.0787529664918527e+01 0.0000000000000000e+00  0.0000000000000000e+00 0.0000000000000000e+00 0.0000000000000000e+00  0.0000000000000000e+00 0.0000000000000000e+00 0.0000000000000000e+00  -4.9275754865629835e-03 -1.0831252631126150e+01 0.0000000000000000e+00  3.9172185677779905e-03 -1.1694141320981496e+01 0.0000000000000000e+00  -2.3487814517996416e-04 -1.0815886572225461e+01 0.0000000000000000e+00  5.2265887164538442e-02 -8.0680659914548862e-03 0.0000000000000000e+00  3.9767755289852352e-02 -7.8634023281873786e-03 0.0000000000000000e+00  2.3092748803019453e-02 -7.8745376108336693e-03 0.0000000000000000e+00  1.1936806105535820e-03 1.6648060132240853e-02 0.0000000000000000e+00  -3.9290274352872138e-04 6.8994332814230697e-03 0.0000000000000000e+00  -4.1081098548836140e-03 5.0932797469225594e-03 0.0000000000000000e+00  -7.4684726324165734e-03 5.3489297456071122e-03 0.0000000000000000e+00  -8.3875262898317135e-03 5.9534743644507815e-03 0.0000000000000000e+00  -3.3900570775519070e-02 7.5667552677765480e-03 0.0000000000000000e+00  -4.0503064767849067e-02 1.9344053317841212e-02 0.0000000000000000e+00  -4.4268479136333277e-02 2.8381590726809840e-02 0.0000000000000000e+00  -2.0849317075025534e-02 -1.0797695649882591e+01 0.0000000000000000e+00  -9.0699074523471670e-03 -1.1664251575664638e+01 0.0000000000000000e+00  -1.6668764409885496e-02 -1.0792404011551012e+01 0.0000000000000000e+00  0.0000000000000000e+00 0.0000000000000000e+00 0.0000000000000000e+00  0.0000000000000000e+00 0.0000000000000000e+00 0.0000000000000000e+00  -2.1774658003513012e-03 -1.0843764889468266e+01 0.0000000000000000e+00  1.3496573439571728e-02 -1.1705367486449511e+01 0.0000000000000000e+00  1.6056904184686888e-02 -1.0825976268904473e+01 0.0000000000000000e+00  4.7633944522991675e-02 3.9921600021668880e-03 0.0000000000000000e+00  5.4986395384627837e-02 -8.9194862091442478e-03 0.0000000000000000e+00  6.7720678058622794e-02 -3.2188372746535493e-02 0.0000000000000000e+00  2.3441328638008362e-02 3.2777718625920695e-02 0.0000000000000000e+00  6.5982918425553493e-03 3.2647144159703663e-02 0.0000000000000000e+00  -5.1751850458466525e-03 3.2970870823940381e-02 0.0000000000000000e+00  -1.4974848890864737e-02 3.0566666227063832e-02 0.0000000000000000e+00  -2.3015079919905482e-02 2.5653747902110911e-02 0.0000000000000000e+00  -4.0529440595895215e-02 6.0515130668225168e-03 0.0000000000000000e+00  -5.0758121121257403e-02 1.4560924707143394e-02 0.0000000000000000e+00  -6.0515599699986843e-02 1.7312235616195125e-02 0.0000000000000000e+00  -3.5421053722908678e-02 -1.0801823628910579e+01 0.0000000000000000e+00  -1.4481027281760071e-02 -1.1676158573689822e+01 0.0000000000000000e+00  -1.4049115441362814e-02 -1.0804819009528224e+01 0.0000000000000000e+00  0.0000000000000000e+00 0.0000000000000000e+00 0.0000000000000000e+00  0.0000000000000000e+00 0.0000000000000000e+00 0.0000000000000000e+00  1.8886053996367124e-03 -1.0868309604779187e+01 0.0000000000000000e+00  2.4877671338819581e-02 -1.1729005078787981e+01 0.0000000000000000e+00  3.6169877271837278e-02 -1.0851309476266747e+01 0.0000000000000000e+00  4.7426520367611073e-02 1.6465201048444802e-02 0.0000000000000000e+00  5.2692186296361070e-02 5.6775261193792300e-03 0.0000000000000000e+00  5.5501223298436854e-02 1.4469374180262973e-03 0.0000000000000000e+00  4.5518354060246645e-02 6.4390788362709395e-02 0.0000000000000000e+00  2.0641073736011512e-02 6.7216033350010168e-02 0.0000000000000000e+00  -2.2650671801057736e-03 6.8823748286188702e-02 0.0000000000000000e+00  -2.3571304165128683e-02 6.6851108790771011e-02 0.0000000000000000e+00  -4.2227916600316273e-02 6.3052891000592928e-02 0.0000000000000000e+00  -5.0330404439127216e-02 -7.7891829576467305e-03 0.0000000000000000e+00  -5.5443256191053204e-02 3.4702671109441024e-03 0.0000000000000000e+00  -5.8269762515961492e-02 1.7084215557534414e-02 0.0000000000000000e+00  -5.3116878289611508e-02 -1.0827299464210348e+01 0.0000000000000000e+00  -2.3187225211883856e-02 -1.1700533730313587e+01 0.0000000000000000e+00  -1.5357692548526798e-02 -1.0831139416690341e+01 0.0000000000000000e+00  0.0000000000000000e+00 0.0000000000000000e+00 0.0000000000000000e+00  0.0000000000000000e+00 0.0000000000000000e+00 0.0000000000000000e+00  6.6318177928322702e-03 -1.0906851791052722e+01 0.0000000000000000e+00  3.6650936560013656e-02 -1.1767294692658062e+01 0.0000000000000000e+00  5.5038870224817633e-02 -1.0892434031843175e+01 0.0000000000000000e+00  5.8049118373332688e-02 2.4224522337772957e-02 0.0000000000000000e+00  6.2739758975437224e-02 1.4869453321276895e-02 0.0000000000000000e+00  6.5910281566509049e-02 5.0426281181752434e-03 0.0000000000000000e+00  5.9429150459561854e-02 1.2001008840025577e-01 0.0000000000000000e+00  2.7931560846700058e-02 1.2072041895163062e-01 0.0000000000000000e+00  -2.6058195076519145e-03 1.2153790143017512e-01 0.0000000000000000e+00  -3.2596370479798457e-02 1.1955372348021288e-01 0.0000000000000000e+00  -6.2693471540882853e-02 1.1713662699984360e-01 0.0000000000000000e+00  -6.1671367087472222e-02 -1.3607449014669251e-02 0.0000000000000000e+00  -6.5901981551625924e-02 -2.9869241760558506e-03 0.0000000000000000e+00  -6.8821398351263857e-02 6.0442172431506951e-03 0.0000000000000000e+00  -6.9747448441354526e-02 -1.0869964145509469e+01 0.0000000000000000e+00  -3.3849179180628408e-02 -1.1741294824321546e+01 0.0000000000000000e+00  -1.7269674809121522e-02 -1.0872051598478267e+01 0.0000000000000000e+00  0.0000000000000000e+00 1.6595754969854874e-10 0.0000000000000000e+00  0.0000000000000000e+00 0.0000000000000000e+00 0.0000000000000000e+00  1.0900522310404830e-02 -1.0957858474310205e+01 0.0000000000000000e+00  4.6409766550401681e-02 -1.1818457631175544e+01 0.0000000000000000e+00  6.9510212540377078e-02 -1.0947436706587910e+01 0.0000000000000000e+00  6.8754899640300668e-02 2.5622353630388013e-02 0.0000000000000000e+00  7.2031276025405461e-02 1.9255120787559407e-02 0.0000000000000000e+00  7.2358193077328742e-02 1.3651280616607600e-02 0.0000000000000000e+00  7.2004049226561381e-02 1.8776324326326463e-01 0.0000000000000000e+00  3.4364774632904306e-02 1.8688680665138827e-01 0.0000000000000000e+00  -2.9087318009289515e-03 1.8806552871429216e-01 0.0000000000000000e+00  -3.9771085276446343e-02 1.8711768398787407e-01 0.0000000000000000e+00  -7.6983424670108755e-02 1.8783170771342114e-01 0.0000000000000000e+00  -7.3949108348012563e-02 -1.4358117818886146e-02 0.0000000000000000e+00  -7.7217076674056251e-02 -7.6701463620652052e-03 0.0000000000000000e+00  -7.7608487957103095e-02 -1.5968526248675366e-03 0.0000000000000000e+00  -8.4361935142216057e-02 -1.0928376021328024e+01 0.0000000000000000e+00  -4.4737356245785315e-02 -1.1795501082673841e+01 0.0000000000000000e+00  -2.0668387862012933e-02 -1.0925556240046372e+01 0.0000000000000000e+00  0.0000000000000000e+00 0.0000000000000000e+00 0.0000000000000000e+00  0.0000000000000000e+00 0.0000000000000000e+00 0.0000000000000000e+00  1.3706271558641044e-02 -1.1016964279365688e+01 0.0000000000000000e+00  5.2091798860444731e-02 -1.1877844335418068e+01 0.0000000000000000e+00  7.6828576538101143e-02 -1.1011119788008617e+01 0.0000000000000000e+00  7.4634381792416063e-02 2.2680564001609334e-02 0.0000000000000000e+00  7.6582111020669572e-02 2.1404127451587145e-02 0.0000000000000000e+00  7.5502961624512546e-02 2.0728662681351085e-02 0.0000000000000000e+00  7.6742313060492715e-02 2.6911044349947222e-01 0.0000000000000000e+00  3.6920476740748089e-02 2.6432619231505583e-01 0.0000000000000000e+00  -3.2203349749252044e-03 2.6427769378707366e-01 0.0000000000000000e+00  -4.3147612316201130e-02 2.6435171821413289e-01 0.0000000000000000e+00  -8.4087608519535270e-02 2.6904956069750452e-01 0.0000000000000000e+00  -8.1307539139996249e-02 -1.0927538954829947e-02 0.0000000000000000e+00  -8.3200093936054584e-02 -9.2168860063214040e-03 0.0000000000000000e+00  -8.1981184403756638e-02 -8.0381800521860808e-03 0.0000000000000000e+00  -9.1955368060953807e-02 -1.0996426919386115e+01 0.0000000000000000e+00  -5.2484106062069588e-02 -1.1858528666951418e+01 0.0000000000000000e+00  -2.4641798672973517e-02 -1.0987312408154684e+01 0.0000000000000000e+00  -5.5572606556068458e-11 -2.1803359044445948e-10 0.0000000000000000e+00  0.0000000000000000e+00 0.0000000000000000e+00 0.0000000000000000e+00  1.4431423878088684e-02 -1.1078150400741537e+01 0.0000000000000000e+00  5.2474446464245830e-02 -1.1939255240996649e+01 0.0000000000000000e+00  7.5490550202104045e-02 -1.1076661565703239e+01 0.0000000000000000e+00  7.3176934317038714e-02 1.7026567809085465e-02 0.0000000000000000e+00  7.3897706386730849e-02 2.1216165672759513e-02 0.0000000000000000e+00  7.1661679419554244e-02 2.5856075593115580e-02 0.0000000000000000e+00  7.3367414574624548e-02 3.5195586571967369e-01 0.0000000000000000e+00  3.5401797589551323e-02 3.4326416850621860e-01 0.0000000000000000e+00  -3.4271265303445573e-03 3.4224679630341998e-01 0.0000000000000000e+00  -4.2233346416815226e-02 3.4341720853531021e-01 0.0000000000000000e+00  -8.2665050956884908e-02 3.5224829598904556e-01 0.0000000000000000e+00  -8.1048384870124904e-02 -4.7679200966555891e-03 0.0000000000000000e+00  -8.1716461912217847e-02 -8.6142104577552805e-03 0.0000000000000000e+00  -7.9406340191186642e-02 -1.2921483246745953e-02 0.0000000000000000e+00  -9.1071534194270706e-02 -1.1067309503611078e+01 0.0000000000000000e+00  -5.4942512909707066e-02 -1.1924020149299958e+01 0.0000000000000000e+00  -2.7570449919862190e-02 -1.1051546648739231e+01 0.0000000000000000e+00  0.0000000000000000e+00 0.0000000000000000e+00 0.0000000000000000e+00  0.0000000000000000e+00 0.0000000000000000e+00 0.0000000000000000e+00  1.2848778242033647e-02 -1.1134823858833942e+01 0.0000000000000000e+00  4.7246541410694773e-02 -1.1996030577649247e+01 0.0000000000000000e+00  6.5355993219291877e-02 -1.1136886733858281e+01 0.0000000000000000e+00  6.3603380687910813e-02 9.8709182883111452e-03 0.0000000000000000e+00  6.3173623315541091e-02 1.9175879687396386e-02 0.0000000000000000e+00  6.0239468731432093e-02 2.8822330558216012e-02 0.0000000000000000e+00  6.1788278307920122e-02 4.2819321940880722e-01 0.0000000000000000e+00  2.9784421169311227e-02 4.1573615087055393e-01 0.0000000000000000e+00  -3.5854458296552131e-03 4.1370837811440042e-01 0.0000000000000000e+00  -3.7081137547904701e-02 4.1583990242442076e-01 0.0000000000000000e+00  -7.2657135881761717e-02 4.2855297260737296e-01 0.0000000000000000e+00  -7.2406756456335986e-02 2.7822705020311201e-03 0.0000000000000000e+00  -7.1952512289567810e-02 -6.2703142766181918e-03 0.0000000000000000e+00  -6.8954373898814633e-02 -1.5656007173585527e-02 0.0000000000000000e+00  -8.1459914301233838e-02 -1.1133455418450296e+01 0.0000000000000000e+00  -5.1386737015403264e-02 -1.1985100995153468e+01 0.0000000000000000e+00  -2.8257340589239861e-02 -1.1111739474793355e+01 0.0000000000000000e+00  0.0000000000000000e+00 0.0000000000000000e+00 0.0000000000000000e+00  0.0000000000000000e+00 0.0000000000000000e+00 0.0000000000000000e+00  9.0756716020761134e-03 -1.1180755536530928e+01 0.0000000000000000e+00  3.6882785002760626e-02 -1.2041938040080902e+01 0.0000000000000000e+00  4.7446753549083245e-02 -1.1185165588087816e+01 0.0000000000000000e+00  4.6591398497370762e-02 2.3105424873928813e-03 0.0000000000000000e+00  4.5150725159054036e-02 1.5741436235417693e-02 0.0000000000000000e+00  4.1905069156227562e-02 2.9398695496868767e-02 0.0000000000000000e+00  4.3205911795007441e-02 4.8936398123303670e-01 0.0000000000000000e+00  2.0639331481965513e-02 4.7381828173438739e-01 0.0000000000000000e+00  -3.6940019475233082e-03 4.7095930973101491e-01 0.0000000000000000e+00  -2.8254989708146709e-02 4.7385018169832532e-01 0.0000000000000000e+00  -5.5211917796508830e-02 4.8975438577130614e-01 0.0000000000000000e+00  -5.6052317393538706e-02 1.0619471231814687e-02 0.0000000000000000e+00  -5.4615161265214547e-02 -2.6468276729196840e-03 0.0000000000000000e+00  -5.1334216090273749e-02 -1.6133311122017893e-02 0.0000000000000000e+00  -6.4069689326113149e-02 -1.1187897299451606e+01 0.0000000000000000e+00  -4.2139455197680274e-02 -1.2035376165242289e+01 0.0000000000000000e+00  -2.6229212314286342e-02 -1.1161604775615812e+01 0.0000000000000000e+00  0.0000000000000000e+00 0.0000000000000000e+00 0.0000000000000000e+00  0.0000000000000000e+00 0.0000000000000000e+00 0.0000000000000000e+00  3.5048250186674075e-03 -1.1210837679152418e+01 0.0000000000000000e+00  2.2475084145582021e-02 -1.2071896106933078e+01 0.0000000000000000e+00  2.3683754764868680e-02 -1.1216156236423279e+01 0.0000000000000000e+00  2.3936245981836628e-02 -4.7422343585963103e-03 0.0000000000000000e+00  2.1665235756993320e-02 1.1360282218626280e-02 0.0000000000000000e+00  1.8454802723398098e-02 2.7577041172758880e-02 0.0000000000000000e+00  1.9601227336164449e-02 5.2889208677847044e-01 0.0000000000000000e+00  8.9570702013925668e-03 5.1127116645986526e-01 0.0000000000000000e+00  -3.7517778260096994e-03 5.0785466082687969e-01 0.0000000000000000e+00  -1.6741676052601052e-02 5.1122295023434527e-01 0.0000000000000000e+00  -3.2270654229232885e-02 5.2926932552848549e-01 0.0000000000000000e+00  -3.3776576324918761e-02 1.7826175457460781e-02 0.0000000000000000e+00  -3.1534034704298552e-02 1.7954017073552298e-03 0.0000000000000000e+00  -2.8317102296897063e-02 -1.434