<?xml version="1.0"?>
<VTKFile type="UnstructuredGrid"  version="0.1"  >
<UnstructuredGrid>
<Piece  NumberOfPoints="589" NumberOfCells="1080">
<Points>
<DataArray  type="Float64"  NumberOfComponents="3"  format="ascii">-9 0 0  -8 0 0  -7 0 0  -6 0 0  -5 0 0  -4 0 0  -3 0 0  -2 0 0  -1 0 0  0 0 0  1 0 0  2 0 0  3 0 0  4 0 0  5 0 0  6 0 0  7 0 0  8 0 0  9 0 0  -9 2 0  -7.999998919167704 2.000001142528598 0  -6.999997807965539 2.000002151711367 0  -5.999996546337555 2.000002920007927 0  -4.999994817368952 2.000003400371574 0  -3.999996656374887 2.0000024748175 0  -2.999998472083287 2.000001645459705 0  -1.999999354839249 2.000000881486698 0  -0.9999995025307603 2.000000253663868 0  8.426729912136665e-07 1.999999899245602 0  1.000001329225758 1.999999879331797 0  2.000001655077257 2.000000110858256 0  3.000001673013434 2.000000314873907 0  4.000001474246361 2.000000248945138 0  5.000001369225225 1.999999318426434 0  6.000001227190661 1.999999877413386 0  7.000000858270233 2.000000115074259 0  8.000000430373088 2.000000118790927 0  9 2 0  -9.000000000004983 4 0  -7.999997959811079 4.000002818447054 0  -6.999996217632022 4.000005266973044 0  -5.999994962036676 4.00000699175058 0  -4.999994197752471 4.000007673188509 0  -3.999996658025746 4.000006974393624 0  -2.999998236649577 4.000004658680433 0  -1.9999985722756 4.000001756945844 0  -0.9999978367771166 3.999999374441917 0  3.485664108046169e-06 3.999998207579899 0  1.000004906033904 3.999998347843211 0  2.00000601183685 3.99999931534977 0  3.000006418453591 4.000000546991097 0  4.000006027395604 4.000001347783146 0  5.00000503640265 4.000000119366836 0  6.00000336192247 4.000001040133367 0  7.000001952446121 4.000001165926351 0  8.000000870649252 4.000000727612651 0  9 4 0  -9 6 0  -7.999995808381946 6.00000597407698 0  -6.999992680959548 6.000011277252869 0  -5.999991412492998 6.000015236872987 0  -4.999992190791085 6.000017255766985 0  -3.999996797461838 6.000013563067917 0  -2.999998688578355 6.000006571140705 0  -1.999997354105681 5.999999412710849 0  -0.9999948619930722 5.999995611917463 0  7.412505994038795e-06 5.999994692194447 0  1.000009294136738 5.999995296512835 0  2.000010750891317 5.999997317513897 0  3.000011611309432 6.000000799831673 0  4.000011323972266 6.00000403545147 0  5.000008772833079 6.000004610995314 0  6.000004436625553 6.000005382762268 0  7.000001735896354 6.000004473214536 0  8.000000466331171 6.000002493635306 0  9 6 0  -9 8 0  -7.999989399973881 8.000011813433428 0  -6.999981708418717 8.00002266187883 0  -5.999979675885586 8.000031245005893 0  -4.999985477366131 8.00003544184101 0  -3.999994854374469 8.000019515788678 0  -2.999991585804405 8.000001220974312 0  -1.999986764610841 7.9999931582824 0  -0.9999858729928138 7.999993327539423 0  1.213076490700188e-05 7.999993537717386 0  1.000010360817125 7.999992674516784 0  2.000010537678544 7.999994433436868 0  3.000013771520855 7.999997477941959 0  4.000015099909817 8.000007072560271 0  5.0000084522825 8.00001819478838 0  5.999998969332689 8.000016450744029 0  6.999995794629164 8.00001206068581 0  7.999996849041913 8.00000631591435 0  9 8 0  -9 10 0  -7.999971356985788 10.00002151328317 0  -6.999948099217599 10.00004310861179 0  -5.999936602725771 10.00006479965842 0  -4.999945639414007 10.00008644139727 0  -3.999961372910574 10.00003280221084 0  -2.999956057864003 9.999987456611775 0  -1.999960965858383 9.999998779439506 0  -0.9999745235083802 10.00000247106495 0  1.647720166920399e-05 10.00000337091477 0  1.000008122582866 10.00000296455109 0  1.999997602658722 10.00000191546247 0  2.999987568233984 9.999988115007792 0  3.99998846398223 10.00001509048608 0  4.999976640333808 10.00005155962162 0  5.999968268307933 10.00003810324742 0  6.999972936491202 10.00002506723708 0  7.999984845357081 10.00001242288712 0  9 10 0  -9 12 0  -7.99993176951725 12.00003088622529 0  -6.999867439225276 12.00006317466639 0  -5.999811385696879 12.00009855548296 0  -4.999768956943989 12.00013941986333 0  -3.999777260867579 12.00003795759772 0  -2.99976694729871 11.99993717607631 0  -1.999817027078806 11.99995342314966 0  -0.9998771604593665 11.99996429942969 0  5.786458414752656e-05 11.99997021954941 0  0.9999900700605548 11.99997129829181 0  1.999920571653101 11.99996687475724 0  2.999851185354206 11.99995496955134 0  3.99985615242897 12.00001957352362 0  4.99985481097287 12.00008449207111 0  5.999885403462873 12.00005807517357 0  6.999921114262876 12.0000365076641 0  7.999959857830422 12.00001764430875 0  9 12 0  -9 14 0  -7.999876573601572 14.00003465185836 0  -6.999753659824185 14.00007087392537 0  -5.999631648388515 14.00011038099868 0  -4.999510561917983 14.00015517235679 0  -3.999509377330353 14.00003142817361 0  -2.999505812840447 13.99990591995908 0  -1.999632888984958 13.99992955268622 0  -0.9997604409702893 13.99994595495779 0  0.0001105248069187958 13.99995643589039 0  0.9999788335103031 13.99996164277511 0  1.999843099331055 13.99996176302731 0  2.999701828527691 13.99995670811937 0  3.99969955203846 14.00002070656412 0  4.999701883012711 14.00008387789118 0  5.999782059434646 14.00005865149076 0  6.999857157752984 14.0000371325291 0  7.999929274065034 14.00001799006369 0  9 14 0  -9 16 0  -7.99981931612121 16.0000321377889 0  -6.99963625287137 16.00006543546655 0  -5.999448182188061 16.0001010727454 0  -4.999251943945942 16.00014024566031 0  -3.999245577884683 16.00002663264238 0  -2.999249026671267 15.99991328926617 0  -1.999446873662059 15.99993461073277 0  -0.9996378078729083 15.99995130116205 0  0.0001738060493942 15.99996375301083 0  0.9999837687288232 15.99997233801848 0  1.999787782168605 15.99997735593605 0  2.99958118776851 15.99997905496758 0  3.999574855630099 16.00002115378298 0  4.999581847320272 16.00006303337812 0  5.999699018205194 16.00004439920373 0  6.999805123958446 16.00002825215457 0  7.999904248989576 16.00001372654877 0  9 16 0  -9 18 0  -7.999771565912821 18.00002498452702 0  -6.999538855435174 18.00005063976084 0  -5.999297352109483 18.00007762366645 0  -4.999042051685696 18.00010656189135 0  -3.99903237581901 18.00002339004729 0  -2.999039286077904 17.99994004353627 0  -1.999288539139776 17.9999581974104 0  -0.9995253850398819 17.9999736066443 0  0.0002436847056628255 17.99998654232223 0  1.000012502866109 17.99999730621296 0  1.999774908839241 18.00000622865075 0  2.999524447226093 18.00001368160166 0  3.999516312035988 18.00002129489995 0  4.999525297095072 18.00002851584099 0  5.999660227283182 18.00002019925948 0  6.999781007276668 18.00001288647588 0  7.999892717180487 18.00000626695494 0  9 18 0  -9 20 0  -7.999740909435959 20.0000151482364 0  -6.999476606856795 20.00003052949856 0  -5.999201676112462 20.00004635725518 0  -4.998910290873967 20.00006280429993 0  -3.998899129363062 20.00002085437953 0  -2.998907940287794 19.99997871831768 0  -1.999179863857337 19.99999276596206 0  -0.9994366430625919 20.00000580983059 0  0.0003145639522654575 20.00001802201295 0  1.000066892679376 20.00002964324256 0  1.999813518376861 20.00004098195695 0  2.999547405507959 20.0000524200157 0  3.999539027791146 20.00002088594803 0  4.99954832886797 19.99998899426804 0  5.99967802672278 19.99999198484068 0  6.99979316503248 19.9999947481797 0  7.999898891475206 19.99999739727411 0  8.999999999968759 19.99999999998952 0  -9 22 0  -7.999731090285012 22.00000437943334 0  -6.999456848927651 22.00000863278472 0  -5.999171782353971 22.00001261300252 0  -4.998870072764409 22.00001613060492 0  -3.99885894356581 22.00001906009576 0  -2.998868055628592 22.00002179328716 0  -1.999131793458324 22.00003135047929 0  -0.9993798590535261 22.00004134064683 0  0.0003809538184975227 22.00005186631559 0  1.000144103283053 22.00006311093787 0  1.999903103728688 22.00007533815493 0  2.999651333128064 22.00008889393991 0  3.99964400751004 22.0000201733315 0  4.999652306086857 21.99995112561988 0  5.999754052921894 21.99996468042482 0  6.999842963993124 21.99997706758829 0  7.999923534621336 21.99998871353441 0  9 22 0  -9 24 0  -7.999742587678586 23.99999411458111 0  -6.999480370728259 23.99998782787806 0  -5.999208426203611 23.99998071801086 0  -4.99892158963731 23.99997232284041 0  -3.998911659208256 24.00001787356005 0  -2.998919865446132 24.0000632061154 0  -1.999146435340314 24.00006820196028 0  -0.9993586005638605 24.00007472825847 0  0.0004379980403516131 24.00008283347313 0  1.000237921799327 24.00009264671698 0  2.000035797311543 24.00010437823508 0  2.999826181140668 24.00011832043916 0  3.999820838485114 24.00001926749821 0  4.999827142326451 23.99991990521925 0  5.999881408807495 23.99994204817605 0  6.999926116587037 23.99996235300381 0  7.99996459445433 23.99998146844333 0  9 24 0  -9 26 0  -7.999773290263838 25.999985454583 0  -6.999542783370836 25.99997031374016 0  -5.999304602521899 25.99995396279044 0  -4.999054710899414 25.99993574881987 0  -3.999046838315111 26.00001717244149 0  -2.999053240591935 26.00009836047683 0  -1.999218714276527 26.00009892873478 0  -0.9993724054232106 26.00010179794333 0  0.0004817445005897124 26.00010696606266 0  1.000339946979086 26.00011450671391 0  2.000198483240077 26.00012457258216 0  3.000053624429259 26.00013739443293 0  4.000050865149759 26.00001828989897 0  5.000054524150314 25.99989889633737 0  6.000046982651346 25.99992677048798 0  7.000034177848137 25.99995239742262 0  8.000017937095995 25.99997655979941 0  9 26 0  -9 28 0  -7.999819171009426 27.99997917602878 0  -6.999635871998096 27.99995763914729 0  -5.999447590938624 27.9999346583234 0  -4.99925173062564 27.99990946646433 0  -3.999246481062022 28.00001685094372 0  -2.999250475851902 28.00012398436359 0  -1.999338141853437 28.00012044815323 0  -0.9994175837578343 28.00011967312672 0  0.000509284411119894 28.00012160512609 0  1.000440650500304 28.00012626330973 0  2.000374776177718 28.0001337402591 0  3.000309965950923 28.00014420205663 0  4.000310084966824 28.00001736197364 0  5.000310756923473 27.99989025172025 0  6.00023358867005 27.99992048391004 0  7.000155968724108 27.99994830162353 0  
[...]
<PointData  Vectors="f_44-0"> 
<DataArray  type="Float64"  Name="f_44-0"  NumberOfComponents="3" format="ascii">0.0000000000000000e+00 0.0000000000000000e+00 0.0000000000000000e+00  3.9533107027304207e-07 -1.2317745433989300e+01 0.0000000000000000e+00  4.3246962267306372e-07 -1.3012704083736702e+01 0.0000000000000000e+00  4.6758416100783369e-07 -1.2365181265874368e+01 0.0000000000000000e+00  0.0000000000000000e+00 0.0000000000000000e+00 0.0000000000000000e+00  0.0000000000000000e+00 0.0000000000000000e+00 0.0000000000000000e+00  0.0000000000000000e+00 0.0000000000000000e+00 0.0000000000000000e+00  0.0000000000000000e+00 0.0000000000000000e+00 0.0000000000000000e+00  0.0000000000000000e+00 0.0000000000000000e+00 0.0000000000000000e+00  0.0000000000000000e+00 0.0000000000000000e+00 0.0000000000000000e+00  0.0000000000000000e+00 0.0000000000000000e+00 0.0000000000000000e+00  0.0000000000000000e+00 0.0000000000000000e+00 0.0000000000000000e+00  0.0000000000000000e+00 0.0000000000000000e+00 0.0000000000000000e+00  0.0000000000000000e+00 0.0000000000000000e+00 0.0000000000000000e+00  0.0000000000000000e+00 0.0000000000000000e+00 0.0000000000000000e+00  4.0109797027772025e-07 -1.2301599074569808e+01 0.0000000000000000e+00  4.3258516124488009e-07 -1.2999145827422598e+01 0.0000000000000000e+00  4.6710900926193521e-07 -1.2352957131011344e+01 0.0000000000000000e+00  0.0000000000000000e+00 0.0000000000000000e+00 0.0000000000000000e+00  0.0000000000000000e+00 0.0000000000000000e+00 0.0000000000000000e+00  -3.4722197963375549e-02 -1.2361001906852172e+01 0.0000000000000000e+00  -2.1184538383384754e-02 -1.3011711247845332e+01 0.0000000000000000e+00  -2.9087925788125451e-02 -1.2356556342634100e+01 0.0000000000000000e+00  3.9655842088695575e-04 4.3211023844529794e-04 0.0000000000000000e+00  1.6853933593310617e-04 4.2016584523670730e-04 0.0000000000000000e+00  5.3489415526055671e-05 2.7229247427120942e-04 0.0000000000000000e+00  -2.0981659932904376e-05 9.7025077922230517e-05 0.0000000000000000e+00  5.4625591515644892e-07 -2.1490605332041799e-05 0.0000000000000000e+00  6.8579495842711164e-05 -4.9515308292881081e-05 0.0000000000000000e+00  1.3669998927018934e-04 3.0396367430198859e-06 0.0000000000000000e+00  1.4635290374720190e-04 1.0814942187713264e-04 0.0000000000000000e+00  7.9376647958864129e-05 2.4560532983041529e-04 0.0000000000000000e+00  -7.6218005014554684e-05 3.1756804337141709e-04 0.0000000000000000e+00  -2.8465026548035055e-04 2.8423645887295124e-04 0.0000000000000000e+00  -3.6028881084090948e-02 -1.2349939767052348e+01 0.0000000000000000e+00  -2.2446845959956399e-02 -1.3001824195310068e+01 0.0000000000000000e+00  -3.1039437743077415e-02 -1.2345907522351052e+01 0.0000000000000000e+00  0.0000000000000000e+00 0.0000000000000000e+00 0.0000000000000000e+00  0.0000000000000000e+00 0.0000000000000000e+00 0.0000000000000000e+00  -1.6286368316336369e-02 -1.2361440508115994e+01 0.0000000000000000e+00  -3.2828225146032529e-02 -1.3023189807144481e+01 0.0000000000000000e+00  -3.1325576087625803e-02 -1.2354766226463502e+01 0.0000000000000000e+00  5.8777005129155070e-04 1.1471098353812517e-03 0.0000000000000000e+00  1.1402911776880808e-04 8.2095487235852378e-04 0.0000000000000000e+00  -1.3703304287891464e-04 3.4406683570034039e-04 0.0000000000000000e+00  -1.8216310208331792e-04 -3.2092585400382455e-06 0.0000000000000000e+00  -5.2812254459385774e-05 -1.3940219125443089e-04 0.0000000000000000e+00  1.0552987588855395e-04 -1.3548050433023894e-04 0.0000000000000000e+00  2.2547828110973866e-04 -3.4154968609902936e-05 0.0000000000000000e+00  2.1609916472377507e-04 2.5222664340487233e-04 0.0000000000000000e+00  1.4364574529786739e-04 6.2678755749437224e-04 0.0000000000000000e+00  -2.6438648931498327e-05 8.7245979256212955e-04 0.0000000000000000e+00  -2.5810868777007120e-04 9.7020525186743026e-04 0.0000000000000000e+00  -1.6940078441932859e-02 -1.2344570425169348e+01 0.0000000000000000e+00  -3.3379641202206205e-02 -1.3005613367004020e+01 0.0000000000000000e+00  -3.2576671997018684e-02 -1.2336323758512231e+01 0.0000000000000000e+00  0.0000000000000000e+00 0.0000000000000000e+00 0.0000000000000000e+00  0.0000000000000000e+00 0.0000000000000000e+00 0.0000000000000000e+00  -4.7343355081090688e-03 -1.2352221616997904e+01 0.0000000000000000e+00  -1.2350499038250360e-02 -1.3008400087578526e+01 0.0000000000000000e+00  -2.1546860901133089e-02 -1.2334116699979859e+01 0.0000000000000000e+00  7.4529688428373651e-04 1.7578698885344411e-03 0.0000000000000000e+00  -6.9842156687028965e-05 1.0053664656332864e-03 0.0000000000000000e+00  -3.5278934769755971e-04 3.2376724557154853e-04 0.0000000000000000e+00  -1.0476845143909368e-04 1.3037184532688456e-04 0.0000000000000000e+00  3.3260410146425032e-05 -6.1215401695895896e-05 0.0000000000000000e+00  1.1105518403535376e-04 -3.2220995841659945e-04 0.0000000000000000e+00  2.1293520445646210e-04 -2.8077062641610411e-04 0.0000000000000000e+00  4.1100534525243226e-04 9.3219519520414064e-05 0.0000000000000000e+00  4.1250461067230749e-04 7.4324659364474960e-04 0.0000000000000000e+00  1.7007052828200915e-04 1.7410200518579717e-03 0.0000000000000000e+00  -1.8339573493712390e-04 2.3591459756730410e-03 0.0000000000000000e+00  -7.1229723502336554e-03 -1.2336854720925455e+01 0.0000000000000000e+00  -1.8799944633269807e-02 -1.2998718330850291e+01 0.0000000000000000e+00  -2.9311598931574544e-02 -1.2331102306792573e+01 0.0000000000000000e+00  0.0000000000000000e+00 0.0000000000000000e+00 0.0000000000000000e+00  0.0000000000000000e+00 0.0000000000000000e+00 0.0000000000000000e+00  -1.6645915143211924e-03 -1.2358683618843163e+01 0.0000000000000000e+00  -4.5061069733758593e-03 -1.3014516788605857e+01 0.0000000000000000e+00  -1.7407446069421826e-02 -1.2345206801337827e+01 0.0000000000000000e+00  2.2479389264026882e-03 4.7208954738178020e-03 0.0000000000000000e+00  1.4816364067745716e-03 2.1643304639752388e-03 0.0000000000000000e+00  3.7631018072877313e-04 1.1568231611187509e-03 0.0000000000000000e+00  8.3517684821266523e-04 8.3973352045488010e-04 0.0000000000000000e+00  1.9883971161459621e-04 -7.0365411559672826e-06 0.0000000000000000e+00  -2.1988494953648411e-04 -1.8278413613103918e-04 0.0000000000000000e+00  -6.9804854680477100e-04 1.8601874436430002e-04 0.0000000000000000e+00  -6.1545352692619188e-04 -1.9505060544510418e-04 0.0000000000000000e+00  -1.4944060734161831e-03 9.7899127396997303e-04 0.0000000000000000e+00  -1.4594075958229244e-03 3.7076008460612264e-03 0.0000000000000000e+00  -1.8373331001288362e-03 5.5920595713185410e-03 0.0000000000000000e+00  -4.6960337951185383e-03 -1.2340239248097097e+01 0.0000000000000000e+00  -5.3637514875892051e-03 -1.2995462995923454e+01 0.0000000000000000e+00  -1.8538052735742390e-02 -1.2328996237595481e+01 0.0000000000000000e+00  0.0000000000000000e+00 0.0000000000000000e+00 0.0000000000000000e+00  0.0000000000000000e+00 0.0000000000000000e+00 0.0000000000000000e+00  -1.8522315456089356e-04 -1.2360293087533329e+01 0.0000000000000000e+00  4.7442405249581657e-03 -1.3011545902291124e+01 0.0000000000000000e+00  3.0362767019426629e-03 -1.2337541360735994e+01 0.0000000000000000e+00  1.2946970701964306e-02 7.2428312744036109e-03 0.0000000000000000e+00  9.3117974706068609e-03 2.4055563358352824e-03 0.0000000000000000e+00  6.7278100527845969e-03 -1.8328286719317720e-03 0.0000000000000000e+00  2.5190267410159909e-03 2.8079573436876814e-03 0.0000000000000000e+00  1.0368840546192571e-03 1.4453914237918862e-03 0.0000000000000000e+00  -4.7104077765409231e-04 1.1825816022953428e-03 0.0000000000000000e+00  -1.8635483536152274e-03 1.1543358928693002e-03 0.0000000000000000e+00  -3.3223618378543725e-03 1.2544755872822644e-03 0.0000000000000000e+00  -7.3795549016295843e-03 -1.3103076772172495e-04 0.0000000000000000e+00  -8.0005494935865874e-03 5.3620120069797581e-03 0.0000000000000000e+00  -1.0433345557275755e-02 1.1941313126431477e-02 0.0000000000000000e+00  -1.0636004983151337e-02 -1.2336841573326625e+01 0.0000000000000000e+00  -5.3800739034525116e-03 -1.2994511550767943e+01 0.0000000000000000e+00  -1.0160287732550333e-02 -1.2330706255258947e+01 0.0000000000000000e+00  0.0000000000000000e+00 0.0000000000000000e+00 0.0000000000000000e+00  0.0000000000000000e+00 0.0000000000000000e+00 0.0000000000000000e+00  3.0696461525625035e-03 -1.2370215438366863e+01 0.0000000000000000e+00  1.5096470273627861e-02 -1.3019504470158150e+01 0.0000000000000000e+00  1.9453874917116719e-02 -1.2345671631332928e+01 0.0000000000000000e+00  2.8263360914974753e-02 1.3813216636674877e-02 0.0000000000000000e+00  2.8600816657074486e-02 2.8658122725281217e-03 0.0000000000000000e+00  3.1362903658683709e-02 -9.6363096373155554e-03 0.0000000000000000e+00  9.7230248539250629e-03 1.2741115565341741e-02 0.0000000000000000e+00  2.3970524152384237e-03 1.4121704212602526e-02 0.0000000000000000e+00  -2.8724683454303809e-03 1.5859279059171023e-02 0.0000000000000000e+00  -8.2575308166138450e-03 1.3331715236739703e-02 0.0000000000000000e+00  -1.6829575906474201e-02 5.3748995711135859e-03 0.0000000000000000e+00  -2.7052493054542055e-02 -5.4219189378674195e-03 0.0000000000000000e+00  -2.7615145105153727e-02 5.5173023651893483e-03 0.0000000000000000e+00  -2.9404413750735877e-02 1.5773281169915672e-02 0.0000000000000000e+00  -1.9132651695221162e-02 -1.2339626030785020e+01 0.0000000000000000e+00  -1.0916363120772182e-02 -1.3004956866306093e+01 0.0000000000000000e+00  -8.4310980270407131e-03 -1.2341798970549924e+01 0.0000000000000000e+00  0.0000000000000000e+00 0.0000000000000000e+00 0.0000000000000000e+00  0.0000000000000000e+00 0.0000000000000000e+00 0.0000000000000000e+00  7.6746024030873361e-03 -1.2392833454814525e+01 0.0000000000000000e+00  2.7107596692504461e-02 -1.3040760321502118e+01 0.0000000000000000e+00  3.8939432146882939e-02 -1.2369035103841551e+01 0.0000000000000000e+00  5.0542268700455958e-02 1.6910469915810803e-02 0.0000000000000000e+00  5.1451952999333722e-02 4.8347770130203645e-03 0.0000000000000000e+00  5.1905906723420416e-02 -6.3341164542406719e-03 0.0000000000000000e+00  4.3946919723957908e-02 3.6275043240926168e-02 0.0000000000000000e+00  2.0491343453800534e-02 4.1233758067356109e-02 0.0000000000000000e+00  -1.0635875278557246e-04 4.3726710291010502e-02 0.0000000000000000e+00  -1.8865748040015257e-02 4.2122993528259919e-02 0.0000000000000000e+00  -3.5849155059148291e-02 3.8024283994738499e-02 0.0000000000000000e+00  -5.1669596166925735e-02 -7.9378061600236787e-03 0.0000000000000000e+00  -5.2465184601674347e-02 4.4346646147941553e-03 0.0000000000000000e+00  -5.2899590848079311e-02 1.7016280817672636e-02 0.0000000000000000e+00  -4.1389898448362626e-02 -1.2366937517123683e+01 0.0000000000000000e+00  -1.7355665305222819e-02 -1.3029059917210501e+01 0.0000000000000000e+00  -1.0261572153683021e-02 -1.2368022522208154e+01 0.0000000000000000e+00  0.0000000000000000e+00 0.0000000000000000e+00 0.0000000000000000e+00  0.0000000000000000e+00 0.0000000000000000e+00 0.0000000000000000e+00  1.2578619826586980e-02 -1.2429719766577238e+01 0.0000000000000000e+00  3.8898048868874449e-02 -1.3076873763553111e+01 0.0000000000000000e+00  5.7113384775481973e-02 -1.2409416985552593e+01 0.0000000000000000e+00  7.3327307299621544e-02 1.6430750117655362e-02 0.0000000000000000e+00  7.4654707853552188e-02 6.1202886841803476e-03 0.0000000000000000e+00  7.4577030156190618e-02 -4.2222988335287636e-03 0.0000000000000000e+00  5.7852747629303050e-02 9.1259999111744011e-02 0.0000000000000000e+00  2.7888284850204309e-02 8.9909130727890918e-02 0.0000000000000000e+00  -1.8942153996779433e-04 9.0756080059673450e-02 0.0000000000000000e+00  -2.7601357595283191e-02 8.9307382694940249e-02 0.0000000000000000e+00  -5.7432480286359402e-02 8.7703897914150147e-02 0.0000000000000000e+00  -7.5404030269674835e-02 -6.6868221436387617e-03 0.0000000000000000e+00  -7.6582953351283858e-02 3.9300091596550686e-03 0.0000000000000000e+00  -7.6331023400635661e-02 1.4344443083256093e-02 0.0000000000000000e+00  -6.2802418573781757e-02 -1.2412328983365439e+01 0.0000000000000000e+00  -2.8496538620885515e-02 -1.3069314179915192e+01 0.0000000000000000e+00  -1.2046552302563341e-02 -1.2408643009194240e+01 0.0000000000000000e+00  0.0000000000000000e+00 0.0000000000000000e+00 0.0000000000000000e+00  0.0000000000000000e+00 0.0000000000000000e+00 0.0000000000000000e+00  1.6548516161681546e-02 -1.2478583941489697e+01 0.0000000000000000e+00  4.7948100938593370e-02 -1.3125121309541836e+01 0.0000000000000000e+00  7.0230847910771943e-02 -1.2462983694145464e+01 0.0000000000000000e+00  9.0364326667090711e-02 1.3223463946011720e-02 0.0000000000000000e+00  9.1794369794447994e-02 6.7814131342425338e-03 0.0000000000000000e+00  9.0976326470318641e-02 4.6142289512486216e-04 0.0000000000000000e+00  7.1045209932667164e-02 1.5330129047818494e-01 0.0000000000000000e+00  3.4004112830143089e-02 1.5037430378389410e-01 0.0000000000000000e+00  -6.2950374391131569e-04 1.5142567432025636e-01 0.0000000000000000e+00  -3.4853714097594142e-02 1.5107463246829941e-01 0.0000000000000000e+00  -7.2415423320868116e-02 1.5337792147505458e-01 0.0000000000000000e+00  -9.3284199319065092e-02 -2.9234557663314347e-03 0.0000000000000000e+00  -9.4611180180385279e-02 3.6419845192425140e-03 0.0000000000000000e+00  -9.3682192853703702e-02 1.0105957145907479e-02 0.0000000000000000e+00  -7.9614760437203502e-02 -1.2470529261549860e+01 0.0000000000000000e+00  -4.0089183433979672e-02 -1.3120645088536669e+01 0.0000000000000000e+00  -1.5598745657460139e-02 -1.2459856870203840e+01 0.0000000000000000e+00  0.0000000000000000e+00 0.0000000000000000e+00 0.0000000000000000e+00  0.0000000000000000e+00 0.0000000000000000e+00 0.0000000000000000e+00  1.8731613566143116e-02 -1.2534575517934648e+01 0.0000000000000000e+00  5.2522115078021250e-02 -1.3180401978069359e+01 0.0000000000000000e+00  7.6015094395234517e-02 -1.2523857822279858e+01 0.0000000000000000e+00  9.8215352717973645e-02 8.4603533361468902e-03 0.0000000000000000e+00  9.9580199530697397e-02 7.1589268196796084e-03 0.0000000000000000e+00  9.8412468916851931e-02 5.9537644192486786e-03 0.0000000000000000e+00  7.5656628365969369e-02 2.2917648441462918e-01 0.0000000000000000e+00  3.6273689090391886e-02 2.2126830345325543e-01 0.0000000000000000e+00  -1.2027366833731179e-03 2.2114630586819300e-01 0.0000000000000000e+00  -3.8362988574978336e-02 2.2193842013641762e-01 0.0000000000000000e+00  -7.9692961931387959e-02 2.2919328958266058e-01 0.0000000000000000e+00  -1.0178811781550477e-01 2.3014059581633992e-03 0.0000000000000000e+00  -1.0304438691479489e-01 3.6859301326696500e-03 0.0000000000000000e+00  -1.0174622810674951e-01 4.9886331303984508e-03 0.0000000000000000e+00  -8.7894306135163483e-02 -1.2535761210241233e+01 0.0000000000000000e+00  -4.8133300187654889e-02 -1.3178649297744478e+01 0.0000000000000000e+00  -1.9667857817583394e-02 -1.2517096635752191e+01 0.0000000000000000e+00  4.1646555253316335e-11 -1.0429592081540297e-09 0.0000000000000000e+00  0.0000000000000000e+00 0.0000000000000000e+00 0.0000000000000000e+00  1.8703986128971565e-02 -1.2591645872922163e+01 0.0000000000000000e+00  5.1804311530186449e-02 -1.3236652626687007e+01 0.0000000000000000e+00  7.3492261206251200e-02 -1.2585338439763724e+01 0.0000000000000000e+00  9.5409440782582858e-02 3.1179952884087063e-03 0.0000000000000000e+00  9.6572511451450002e-02 7.2403768430794428e-03 0.0000000000000000e+00  9.5254090124724106e-02 1.1434338874272780e-02 0.0000000000000000e+00  7.2226700319841353e-02 3.0645702035999695e-01 0.0000000000000000e+00  3.4646719217893508e-02 2.9376736666025677e-01 0.0000000000000000e+00  -1.6435946577881310e-03 2.9260917205969078e-01 0.0000000000000000e+00  -3.7745703230528033e-02 2.9456443512008407e-01 0.0000000000000000e+00  -7.8470821753986508e-02 3.0689594765880723e-01 0.0000000000000000e+00  -9.9456744553789223e-02 8.0295863930204374e-03 0.0000000000000000e+00  -1.0051255093697610e-01 3.9450088240854265e-03 0.0000000000000000e+00  -9.9082939953454741e-02 -2.0532505721713437e-04 0.0000000000000000e+00  -8.6381250343126728e-02 -1.2600856611430999e+01 0.0000000000000000e+00  -5.0346371394428012e-02 -1.3237091331324843e+01 0.0000000000000000e+00  -2.2339203947262982e-02 -1.2574910543595600e+01 0.0000000000000000e+00  0.0000000000000000e+00 0.0000000000000000e+00 0.0000000000000000e+00  0.0000000000000000e+00 0.0000000000000000e+00 0.0000000000000000e+00  1.6407677682153871e-02 -1.2643519997532739e+01 0.0000000000000000e+00  4.5790773124160654e-02 -1.3287693375758238e+01 0.0000000000000000e+00  6.2879066704976908e-02 -1.2640691310516544e+01 0.0000000000000000e+00  8.2094845546740472e-02 -2.0200013807127816e-03 0.0000000000000000e+00  8.2946174536734696e-02 7.0888182587114648e-03 0.0000000000000000e+00  8.1672937819572772e-02 1.6250815209561204e-02 0.0000000000000000e+00  6.0886593103639225e-02 3.7761011939247263e-01 0.0000000000000000e+00  2.9254790335457428e-02 3.6037870440842001e-01 0.0000000000000000e+00  -1.9806409214112261e-03 3.5814475300669835e-01 0.0000000000000000e+00  -3.3100981983663701e-02 3.6107563989100888e-01 0.0000000000000000e+00  -6.8859643832309234e-02 3.7814082510216385e-01 0.0000000000000000e+00  -8.6468145439532004e-02 1.3461094145754637e-02 0.0000000000000000e+00  -8.7219893541419777e-02 4.3598392283733757e-03 0.0000000000000000e+00  -8.5848723708887312e-02 -4.7861151602830157e-03 0.0000000000000000e+00  -7.5446669524013021e-02 -1.2658895135735065e+01 0.0000000000000000e+00  -4.6179580287657999e-02 -1.3289579546173689e+01 0.0000000000000000e+00  -2.2468250759284950e-02 -1.2627230007001923e+01 0.0000000000000000e+00  0.0000000000000000e+00 0.0000000000000000e+00 0.0000000000000000e+00  0.0000000000000000e+00 0.0000000000000000e+00 0.0000000000000000e+00  1.2085827691309711e-02 -1.2684499806666743e+01 0.0000000000000000e+00  3.5146784914345891e-02 -1.3327954217865022e+01 0.0000000000000000e+00  4.5382920341166075e-02 -1.2683904844964836e+01 0.0000000000000000e+00  5.9729959900603528e-02 -6.3253854437718632e-03 0.0000000000000000e+00  6.0198189513007386e-02 6.7610489364191379e-03 0.0000000000000000e+00  5.9122909888497062e-02 1.9882206337588755e-02 0.0000000000000000e+00  4.2895934102237625e-02 4.3479340214258899e-01 0.0000000000000000e+00  2.0645920245555543e-02 4.1388360557842574e-01 0.0000000000000000e+00  -2.2104521147133134e-03 4.1071342766579183e-01 0.0000000000000000e+00  -2.4989402758750709e-02 4.1436083501778004e-01 0.0000000000000000e+00  -5.2059377021017678e-02 4.3530359083136511e-01 0.0000000000000000e+00  -6.4303657645151016e-02 1.7966619269006560e-02 0.0000000000000000e+00  -6.4682341750156830e-02 4.8701548918491403e-03 0.0000000000000000e+00  -6.3524833465490746e-02 -8.2522410070878897e-03 0.0000000000000000e+00  -5.6536718174169977e-02 -1.2703818826298797e+01 0.0000000000000000e+00  -3.6238686144659374e-02 -1.3330563053478125e+01 0.0000000000000000e+00  -1.9770464775560870e-02 -1.2668456550090365e+01 0.0000000000000000e+00  0.0000000000000000e+00 0.0000000000000000e+00 0.0000000000000000e+00  0.0000000000000000e+00 0.0000000000000000e+00 0.0000000000000000e+00  6.2142243711449299e-03 -1.2710114919693313e+01 0.0000000000000000e+00  2.1044679967989477e-02 -1.3353075620797132e+01 0.0000000000000000e+00  2.2947398967856074e-02 -1.2710323764020981e+01 0.0000000000000000e+00  3.0762814870658198e-02 -9.3354657812353536e-03 0.0000000000000000e+00  3.0812031408896275e-02 6.3094380102760731e-03 0.0000000000000000e+00  3.0048680251479446e-02 2.1971810400963375e-02 0.0000000000000000e+00  2.0184412038083365e-02 4.7186753027849776e-01 0.0000000000000000e+00  9.7403070084022859e-03 4.4855118732713223e-01 0.0000000000000000e+00  -2.3370227190255919e-03 4.4469866016365461e-01 0.0000000000000000e+00  -1.4340278212991563e-02 4.4873635121181249e-01 0.0000000000000000e+00  -2.9967979699162237e-02 4.7228187730626142e-01 0.0000000000000000e+00  -3.5429314246536232e-02 2.1084035063704716e-02 0.0000000000000000e+00  -3.5400618495064151e-02 5.4201453645217361e-03 0.0000000000000000e+00  -3.4570569462233289e-02 -1.0251608142287285e