<?xml version="1.0"?>
<VTKFile type="UnstructuredGrid"  version="0.1"  >
<UnstructuredGrid>
<Piece  NumberOfPoints="589" NumberOfCells="1080">
<Points>
<DataArray  type="Float64"  NumberOfComponents="3"  format="ascii">-9 0 0  -8 0 0  -7 0 0  -6 0 0  -5 0 0  -4 0 0  -3 0 0  -2 0 0  -1 0 0  0 0 0  1 0 0  2 0 0  3 0 0  4 0 0  5 0 0  6 0 0  7 0 0  8 0 0  9 0 0  -9 2 0  -8.000007932201379 1.999987785816184 0  -7.000016650001201 1.999977101266309 0  -6.000028021135225 1.999969191353794 0  -5.000046331590598 1.99996461116889 0  -4.000027162650186 1.999973463862775 0  -3.00000746053549 1.999981996730581 0  -1.999997904007957 1.999990061845693 0  -0.9999964246669212 1.999996434316063 0  1.819655984057517e-08 1.999999209843064 0  0.9999961323010277 1.999997215216777 0  1.999996502321616 1.999990909867176 0  3.00000421903222 1.999983171873381 0  4.000020268416173 1.999974852725922 0  5.000043598077522 1.999971316675614 0  6.000026413506917 1.999972571136188 0  7.000015758450917 1.999978865295124 0  8.000007538760826 1.999988565305993 0  9 2 0  -9 4 0  -8.000012721822737 3.999969453953605 0  -7.00002268672177 3.999943104618463 0  -6.000028284894763 3.999925064143928 0  -5.000029858160542 3.999919255685146 0  -4.000001747457021 3.999923339933524 0  -2.999982919774454 3.999947555992293 0  -1.999978102308564 3.999979132105853 0  -0.999985443939551 4.000004539213732 0  6.060353301168349e-07 4.000014725303309 0  0.9999863863580721 4.000006548582988 0  1.999978144008161 3.999984646407292 0  2.999982142809305 3.999954993629477 0  4.0000003052178 3.999925077032813 0  5.000028066016171 3.999914747526182 0  6.000026708746776 3.999924984086808 0  7.000021775184512 3.999944108155562 0  8.00001235341562 3.999970192884809 0  9 4 0  -9 6 0  -8.000028538072344 5.999934339508493 0  -7.000046190266682 5.999875876481772 0  -6.000044648254939 5.999832012702814 0  -5.000021522429639 5.999809853218306 0  -3.999966389738852 5.999845752817683 0  -2.999941342526838 5.999920982560496 0  -1.999951293806026 5.999999893686178 0  -0.999976087563736 6.000043794786919 0  -1.233197588368025e-06 6.000052542047301 0  0.9999761026880394 6.000038133937369 0  1.999958803147866 5.999998378638401 0  2.999952329962528 5.99993120301376 0  3.999965501220683 5.999861447875849 0  5.000012934923613 5.999826624764152 0  6.000041309105256 5.999841850750758 0  7.000045743533277 5.999881512690942 0  8.000028892883723 5.999936935028024 0  9 6 0  -9 8 0  -8.000087885386137 7.999870454959489 0  -7.000146463063408 7.999750272658106 0  -6.00014734230136 7.999652165203996 0  -5.000066212415303 7.999597079941801 0  -3.999959436306597 7.999763366972467 0  -2.999978920711726 7.999958841012638 0  -2.000018847237048 8.000054227094518 0  -1.00002222782638 8.000065261930555 0  1.586659895982579e-06 8.00006851250984 0  1.000019283839075 8.000078178539951 0  2.000011678826532 8.000037891330145 0  2.999964761769375 7.999969368144643 0  3.999948770686882 7.999799751277413 0  5.000054406436666 7.999608310593587 0  6.000151653105867 7.999661003390695 0  7.000154834405573 7.999755898482583 0  8.00009358598215 7.999873123926148 0  9 8 0  -9 10 0  -8.000264363708173 9.999769199900083 0  -7.000477422074677 9.999536494047785 0  -6.00057797008653 9.999300434673582 0  -5.000480731153033 9.999060669875595 0  -4.00031154490916 9.999597524631515 0  -3.000338885127774 10.00005916897641 0  -2.000270051133072 9.999980095433388 0  -1.000121319898558 9.999954709191456 0  -1.1547369644468e-05 9.9999484949142 0  1.00009751957001 9.999948911864072 0  2.00024303081942 9.999945767653733 0  3.000370733327049 10.0001133054027 0  4.000354131515491 9.999670376925911 0  5.000548392273929 9.999085802570793 0  6.000638040581141 9.999311515416633 0  7.00052150631386 9.999541057143526 0  8.000287538978297 9.999770770089119 0  9 10 0  -9 12 0  -8.000645600927694 11.99967573957001 0  -7.001257666873402 11.9993364193197 0  -6.001798284866908 11.9989640311104 0  -5.002220365920235 11.99853347404783 0  -4.002133994198869 11.99951199634479 0  -3.002211853892874 12.00048062870334 0  -2.001510644959493 12.00036452866155 0  -1.0007319227507 12.00030233162325 0  7.578275682702915e-05 12.00029140046158 0  1.000890726380656 12.00033386469533 0  2.001694352041428 12.00044171562621 0  3.002449768800046 12.00064485702216 0  4.002364725317 11.99958043102658 0  5.002421256221336 11.99850705410743 0  6.001948080989732 11.99894710148599 0  7.001357370955415 11.99932577010608 0  8.000695448247464 11.99967049661656 0  9 12 0  -9 14 0  -8.001160024184653 13.99964271257913 0  -7.002322175594309 13.9992689524511 0  -6.003490132484883 13.99886079399565 0  -5.004671507921945 13.99839745990245 0  -4.004684004356529 13.99954032183341 0  -3.00469069887026 14.00069756699818 0  -2.003063095241127 14.00053370846445 0  -1.001459233882315 14.00044520812559 0  0.0001344181416988571 14.00042101908322 0  1.001730655742435 14.00045763594739 0  2.003341235861325 14.0005570286235 0  3.004975245711468 14.00072456627942 0  4.004986951754427 13.99953843887759 0  5.004994908136893 13.99835950486606 0  6.00372589259176 13.99882897834544 0  7.002476698336661 13.99924671593615 0  8.001236593427215 13.99963137032297 0  9 14 0  -9 16 0  -8.001664638172301 15.9996757055298 0  -7.003361318902225 15.99933935264911 0  -6.005124853325843 15.9989786717144 0  -5.006995666651409 15.99858115916263 0  -4.00706278306101 15.99955427363212 0  -3.006999308708282 16.00052215337569 0  -2.004523963837285 16.00040251123945 0  -1.002147174780982 16.00033169169653 0  0.000182802567554547 16.00030818610573 0  1.002514845112834 16.00033106591149 0  2.004897807768455 16.00040052479688 0  3.007383642602227 16.00051763057963 0  4.007454136912871 15.99950743014829 0  5.00739232471996 15.99849640354581 0  6.005420407986774 15.99891833183338 0  7.003557234521315 15.99930036748998 0  8.001762238220692 15.99965653992946 0  9 16 0  -9 18 0  -8.002039704963423 17.99975696604304 0  -7.004130592686619 17.99950720161019 0  -6.0063265024476 17.99924409693876 0  -5.008686546912414 17.99896130577376 0  -4.00878778378592 17.99955720821026 0  -3.008689996395623 18.00015226151624 0  -2.005594959374908 18.00007689678009 0  -1.002649890487306 18.00002982513919 0  0.0002228803577757445 18.00001070810596 0  1.003097255904305 18.00001905784826 0  2.006047034592223 18.00005427638074 0  3.009149531929863 18.00011551016305 0  4.009252846507127 17.99948437207541 0  5.009154375131043 17.99885498626461 0  6.006675357111686 17.99916760097225 0  7.004362173183297 17.99945768433992 0  8.002155196574764 17.99973263740172 0  9 18 0  -9 20 0  -8.00220877092895 19.99986512782866 0  -7.004477260359812 19.99972844634663 0  -6.006867465046487 19.9995883456561 0  -5.009445936018984 19.9994436048068 0  -4.009561416405503 19.99955701183398 0  -3.009447102701379 19.9996694525162 0  -2.006071008832543 19.99963875469044 0  -1.002865740992277 19.99961680510016 0  0.0002564696983598666 19.99960402838773 0  1.003380218765973 19.99960021939711 0  2.006590077660641 19.99960456547984 0  3.009973755725769 19.99961559127743 0  4.010090627407873 19.99947304075679 0  5.00997531357042 19.99933164814834 0  6.007262236065909 19.99950709518178 0  7.004739364297471 19.99967557053341 0  8.002339500621234 19.99983907692336 0  8.999999999993122 19.9999999999934 0  -9 22 0  -8.002137785030826 21.99998050417565 0  -7.004334556511115 21.99996336520508 0  -6.006651155826209 21.99995116439394 0  -5.00915211415481 21.99994693795713 0  -4.009265160638432 21.999552234332 0  -3.009152802727157 21.99915642557701 0  -2.005868763074936 21.99916583611643 0  -1.00275171295471 21.9991673307883 0  0.0002839184848005375 21.999161715911 0  1.003321118020666 21.99914898187088 0  2.006442872244362 21.99912831857494 0  3.009734755032615 21.99909810034659 0  4.009847496261263 21.99946957216134 0  5.009732127704569 21.999841629861 0  6.00708373849652 21.99987446070676 0  7.004621783990643 21.9999133076382 0  8.002281046091833 21.99995579891596 0  9 22 0  -9 24 0  -8.001829635026612 24.00008645645071 0  -7.003709964641387 24.00017853411331 0  -6.005693122815469 24.00028208155798 0  -5.007834009782744 24.00040343569611 0  -4.007931450982557 23.99954299335474 0  -3.007835591099317 23.9986815170313 0  -2.005003435717629 23.9987243871787 0  -1.002314255381418 23.99874611265643 0  0.0003052219912971379 23.99874769706647 0  1.002926311608102 23.99872926547696 0  2.005620339674346 23.99869006834376 0  3.008460614771534 23.99862847549536 0  4.008555090489912 23.99947179104901 0  5.008453483386421 24.00031536041771 0  6.006155140125714 24.00021772784935 0  7.004016739681756 24.00013644059992 0  8.001982643824338 24.00006565365877 0  9 24 0  -9 26 0  -8.001317310259102 26.00016995140232 0  -7.002671314054169 26.00034782446115 0  -6.004099728605694 26.00054177609265 0  -5.005642094411648 26.00076045993131 0  -4.005713867855063 25.99952980284731 0  -3.005645455588706 25.99829830908977 0  -2.003570912099232 25.99836707390456 0  -1.001600118326966 25.99840501750097 0  0.0003202809106967426 25.99841329624467 0  1.002242313888267 25.99839215425151 0  2.004218022243201 25.9983409246058 0  3.006300802226689 25.99825802608446 0  4.006366543094914 25.99947770419057 0  5.006289259859289 26.00069740090023 0  6.004582449628843 26.00049560649869 0  7.002991859182854 26.00031757756097 0  8.001477194104304 26.00015498752742 0  9 26 0  -9 28 0  -8.000656584561394 28.00022179060577 0  -7.001332060229453 28.00045282162677 0  -6.002045905505306 28.000702573346 0  -5.002818465362072 28.00098101431051 0  -4.002857657695131 27.99951385733037 0  -3.002823852003619 27.99804621148256 0  -2.001728007095631 27.99813257774977 0  -1.000686494312809 27.99818210824447 0  0.0003290103430704725 27.99819609677579 0  1.001346137773216 27.99817490189922 0  2.002392528919318 27.99811794724543 0  3.003496539242547 27.99802371997457 0  4.003526873860721 27.99948595831801 0  5.003481364939161 28.00094813109117 0  6.002540443243777 28.00067844751981 0  7.001660493539283 28.00043699223497 0  8.000820418723587 28.00021395115
[...]
<PointData  Vectors="f_44-0"> 
<DataArray  type="Float64"  Name="f_44-0"  NumberOfComponents="3" format="ascii">0.0000000000000000e+00 0.0000000000000000e+00 0.0000000000000000e+00  4.8842940598791740e-07 -9.2858929715884084e+00 0.0000000000000000e+00  4.3034731697322586e-07 -9.3436924671261430e+00 0.0000000000000000e+00  6.9912642025357045e-07 -8.8187476098627755e+00 0.0000000000000000e+00  0.0000000000000000e+00 0.0000000000000000e+00 0.0000000000000000e+00  0.0000000000000000e+00 0.0000000000000000e+00 0.0000000000000000e+00  0.0000000000000000e+00 0.0000000000000000e+00 0.0000000000000000e+00  0.0000000000000000e+00 0.0000000000000000e+00 0.0000000000000000e+00  0.0000000000000000e+00 0.0000000000000000e+00 0.0000000000000000e+00  0.0000000000000000e+00 0.0000000000000000e+00 0.0000000000000000e+00  0.0000000000000000e+00 0.0000000000000000e+00 0.0000000000000000e+00  0.0000000000000000e+00 0.0000000000000000e+00 0.0000000000000000e+00  0.0000000000000000e+00 0.0000000000000000e+00 0.0000000000000000e+00  0.0000000000000000e+00 0.0000000000000000e+00 0.0000000000000000e+00  0.0000000000000000e+00 0.0000000000000000e+00 0.0000000000000000e+00  4.9951568994411213e-07 -9.3017769219662636e+00 0.0000000000000000e+00  4.3662293519519399e-07 -9.3594330032390651e+00 0.0000000000000000e+00  7.0680039196183544e-07 -8.8332594784539964e+00 0.0000000000000000e+00  0.0000000000000000e+00 0.0000000000000000e+00 0.0000000000000000e+00  0.0000000000000000e+00 0.0000000000000000e+00 0.0000000000000000e+00  -4.4794809110566901e-02 -8.9900626158960968e+00 0.0000000000000000e+00  -3.6214175113544597e-03 -9.3589461804007339e+00 0.0000000000000000e+00  3.0902369770038164e-02 -8.9921405086163695e+00 0.0000000000000000e+00  2.0610506138859538e-03 -3.0870902313784028e-04 0.0000000000000000e+00  2.1178622023857790e-03 -9.6220379512459856e-04 0.0000000000000000e+00  1.1452950778919671e-03 -5.2796792190556530e-04 0.0000000000000000e+00  8.2792103642304927e-04 2.1066982961233155e-04 0.0000000000000000e+00  4.7505780717194493e-04 6.0399419998213486e-04 0.0000000000000000e+00  2.0552708767735271e-04 4.8082270093310295e-04 0.0000000000000000e+00  -7.1885638694312845e-05 2.7644723339255255e-05 0.0000000000000000e+00  -3.0149208271457531e-04 -5.4234567406194186e-04 0.0000000000000000e+00  -6.7138931138812448e-04 -1.4184482269415770e-03 0.0000000000000000e+00  -1.2349780333605457e-03 -1.6007425493550144e-03 0.0000000000000000e+00  -2.1613508157655743e-03 -2.8406793997365950e-03 0.0000000000000000e+00  -4.6146126374369163e-02 -9.0058489954438574e+00 0.0000000000000000e+00  -3.7537515174200179e-03 -9.3749079455177764e+00 0.0000000000000000e+00  3.0293859356483360e-02 -9.0083042813050689e+00 0.0000000000000000e+00  0.0000000000000000e+00 0.0000000000000000e+00 0.0000000000000000e+00  0.0000000000000000e+00 0.0000000000000000e+00 0.0000000000000000e+00  7.5171631669701672e-03 -8.9885639563004354e+00 0.0000000000000000e+00  -1.6009448701954407e-02 -9.3297377137640147e+00 0.0000000000000000e+00  9.8010791884902953e-03 -8.9934476318657559e+00 0.0000000000000000e+00  -1.3625099610561223e-03 -1.8706987715059013e-03 0.0000000000000000e+00  -2.5262791562590346e-05 4.9703497866692868e-04 0.0000000000000000e+00  2.0564918083609815e-04 2.2747958384743460e-03 0.0000000000000000e+00  5.3068012103991570e-05 2.2298259776635091e-03 0.0000000000000000e+00  -4.3828795986842556e-04 9.4805602217546954e-04 0.0000000000000000e+00  -5.6871302583618973e-04 -1.6675898752266274e-04 0.0000000000000000e+00  -3.6163418288001934e-04 -2.9111172413962276e-04 0.0000000000000000e+00  5.1148119205001071e-04 -8.8275997879421961e-04 0.0000000000000000e+00  6.3522944009605689e-04 -1.5165912397948423e-03 0.0000000000000000e+00  1.6132508694828153e-04 -5.2302136327352447e-04 0.0000000000000000e+00  -4.6907470081592454e-04 5.6890187670622034e-04 0.0000000000000000e+00  6.7621915022704855e-03 -9.0035123257282166e+00 0.0000000000000000e+00  -1.6858651767933108e-02 -9.3439168355674749e+00 0.0000000000000000e+00  8.1036463306193504e-03 -9.0076637690675661e+00 0.0000000000000000e+00  0.0000000000000000e+00 0.0000000000000000e+00 0.0000000000000000e+00  0.0000000000000000e+00 0.0000000000000000e+00 0.0000000000000000e+00  1.4103407126775717e-02 -8.9918101173645848e+00 0.0000000000000000e+00  -4.0197708044119942e-03 -9.3227611777216328e+00 0.0000000000000000e+00  1.0779588908970416e-02 -8.9828221605871903e+00 0.0000000000000000e+00  -3.3837201311714689e-03 3.2379096843623829e-03 0.0000000000000000e+00  -1.9099324468666277e-03 6.2257286968213895e-03 0.0000000000000000e+00  -1.9269988827016250e-03 4.8972616048723900e-03 0.0000000000000000e+00  -3.0138605240128324e-03 -8.0777765535660750e-04 0.0000000000000000e+00  -1.8176598882395927e-03 -3.4307467464611725e-03 0.0000000000000000e+00  -1.6439896226165733e-04 -1.8486216508211632e-03 0.0000000000000000e+00  1.1314796574355653e-03 -8.7707200121425906e-04 0.0000000000000000e+00  9.6130061448239856e-04 -4.5455050489338645e-04 0.0000000000000000e+00  1.6300934165080095e-03 3.6299096350499578e-04 0.0000000000000000e+00  2.4252247563760787e-03 -2.0666696663243682e-03 0.0000000000000000e+00  4.2850519418766826e-04 -4.8337957915444594e-03 0.0000000000000000e+00  1.5631649770906478e-02 -9.0052423740478194e+00 0.0000000000000000e+00  -5.4139114491071070e-03 -9.3378908374117255e+00 0.0000000000000000e+00  7.2196942430183290e-03 -9.0010889294630854e+00 0.0000000000000000e+00  0.0000000000000000e+00 0.0000000000000000e+00 0.0000000000000000e+00  0.0000000000000000e+00 0.0000000000000000e+00 0.0000000000000000e+00  1.4627415478156035e-02 -8.9956771465441197e+00 0.0000000000000000e+00  -9.1406323890040489e-04 -9.3313090729957242e+00 0.0000000000000000e+00  1.2535741285357798e-02 -9.0009355692258755e+00 0.0000000000000000e+00  -1.3313775468648061e-02 -6.1642043274392772e-04 0.0000000000000000e+00  -1.6051325592098948e-02 4.3680223201397195e-03 0.0000000000000000e+00  -5.4627844071987574e-03 -5.5455720625631885e-03 0.0000000000000000e+00  -4.9334956354932817e-03 -1.1712797233804738e-02 0.0000000000000000e+00  7.6633308513605132e-04 -6.4472426843793880e-03 0.0000000000000000e+00  2.4129726116881921e-03 -5.5613478493891392e-03 0.0000000000000000e+00  5.6246253739756450e-03 -1.1101716245452330e-02 0.0000000000000000e+00  5.2719881983373275e-03 -1.8833992074136472e-03 0.0000000000000000e+00  2.0254887995908386e-02 -6.6451482742259120e-03 0.0000000000000000e+00  2.1908758744003522e-02 -1.6449040408463331e-02 0.0000000000000000e+00  1.3239766802041817e-02 -1.4242520219607396e-02 0.0000000000000000e+00  1.4962357854751836e-02 -9.0050365126886955e+00 0.0000000000000000e+00  -1.9167203102277467e-04 -9.3352456478596206e+00 0.0000000000000000e+00  1.0251590424357781e-02 -8.9977790490339444e+00 0.0000000000000000e+00  0.0000000000000000e+00 0.0000000000000000e+00 0.0000000000000000e+00  0.0000000000000000e+00 0.0000000000000000e+00 0.0000000000000000e+00  1.3725855820566664e-02 -8.9921498941321136e+00 0.0000000000000000e+00  -4.4288034603925421e-03 -9.3229153379096061e+00 0.0000000000000000e+00  4.3304490575551075e-03 -8.9810515304125236e+00 0.0000000000000000e+00  -5.8514453862165194e-02 2.6690714837736031e-02 0.0000000000000000e+00  -4.5510788960884702e-02 1.7197529731364680e-02 0.0000000000000000e+00  -2.3830458482710395e-02 9.1777802026902985e-03 0.0000000000000000e+00  3.0158478065174755e-03 -2.0851280241519006e-02 0.0000000000000000e+00  2.5985309121566275e-03 -7.9944580410714772e-03 0.0000000000000000e+00  5.5567358177388811e-03 -5.6292423526724334e-03 0.0000000000000000e+00  8.1643057994331900e-03 -6.0729006918258622e-03 0.0000000000000000e+00  6.7446640356674135e-03 -6.7662528598236805e-03 0.0000000000000000e+00  3.9572736393770756e-02 -1.2096402132776856e-02 0.0000000000000000e+00  4.8803609836156919e-02 -2.0387164168207992e-02 0.0000000000000000e+00  4.9939746525941069e-02 -2.2122441583428604e-02 0.0000000000000000e+00  2.4074330433246818e-02 -8.9970433517728505e+00 0.0000000000000000e+00  6.6000847774664174e-04 -9.3305313135388648e+00 0.0000000000000000e+00  1.1019792553401664e-02 -8.9949840627175472e+00 0.0000000000000000e+00  0.0000000000000000e+00 0.0000000000000000e+00 0.0000000000000000e+00  0.0000000000000000e+00 0.0000000000000000e+00 0.0000000000000000e+00  1.5336951928976853e-02 -8.9909136733074728e+00 0.0000000000000000e+00  -4.2625195143027386e-04 -9.3206490024410051e+00 0.0000000000000000e+00  1.0702185167282373e-02 -8.9818847172192342e+00 0.0000000000000000e+00  -2.2418792189751336e-02 2.0155572283066803e-02 0.0000000000000000e+00  -3.3449073917100676e-02 1.9880948955503613e-02 0.0000000000000000e+00  -4.8583398661849853e-02 3.3070093304259737e-02 0.0000000000000000e+00  -1.9528263198057217e-02 -2.6384298938872015e-02 0.0000000000000000e+00  -6.8906551263834426e-03 -2.5143420946421548e-02 0.0000000000000000e+00  2.0773222286671516e-03 -2.2114998419077467e-02 0.0000000000000000e+00  7.6793675927761046e-03 -2.3202543646572395e-02 0.0000000000000000e+00  4.1616438862035017e-03 -2.9559861672496929e-02 0.0000000000000000e+00  1.3098541043324865e-02 -1.9836777339316936e-02 0.0000000000000000e+00  2.8151892602367862e-02 -1.2602751736104815e-02 0.0000000000000000e+00  4.0152137674572395e-02 2.4559960792252212e-03 0.0000000000000000e+00  2.5388348141059742e-02 -8.9976939642809004e+00 0.0000000000000000e+00  -3.2437701787225316e-03 -9.3322847143075034e+00 0.0000000000000000e+00  9.3475876888740282e-03 -8.9963722062186697e+00 0.0000000000000000e+00  0.0000000000000000e+00 0.0000000000000000e+00 0.0000000000000000e+00  0.0000000000000000e+00 0.0000000000000000e+00 0.0000000000000000e+00  1.7536167905789681e-02 -8.9942341284307759e+00 0.0000000000000000e+00  4.3577945758002763e-03 -9.3234154709055375e+00 0.0000000000000000e+00  1.8063346624047374e-02 -8.9847134707127818e+00 0.0000000000000000e+00  2.0117765609692667e-02 6.2793413453146448e-03 0.0000000000000000e+00  1.3422244198926684e-02 5.5354547757897128e-04 0.0000000000000000e+00  9.7656823520212883e-03 -1.3814519455987629e-02 0.0000000000000000e+00  1.0830062951399952e-02 -3.1162607996903510e-02 0.0000000000000000e+00  6.0303947963538324e-03 -2.8413105107213153e-02 0.0000000000000000e+00  3.0691732026139995e-03 -2.6272671231531701e-02 0.0000000000000000e+00  1.1615904204556383e-03 -2.6361310166219815e-02 0.0000000000000000e+00  -1.5940677139698702e-03 -2.6760422306369082e-02 0.0000000000000000e+00  -1.8218020661454875e-02 -2.6187823034286043e-03 0.0000000000000000e+00  -1.1665228376383579e-02 3.0247553371430826e-03 0.0000000000000000e+00  -8.0371263045893454e-03 5.3378365913512261e-03 0.0000000000000000e+00  8.0566496620023288e-03 -9.0053149743793650e+00 0.0000000000000000e+00  -6.3735781047178138e-03 -9.3394861289343822e+00 0.0000000000000000e+00  7.4031524986284455e-03 -9.0033456477204474e+00 0.0000000000000000e+00  0.0000000000000000e+00 0.0000000000000000e+00 0.0000000000000000e+00  0.0000000000000000e+00 0.0000000000000000e+00 0.0000000000000000e+00  1.9350691523457596e-02 -9.0017439360368829e+00 0.0000000000000000e+00  8.0814648648882600e-03 -9.3306988347207458e+00 0.0000000000000000e+00  2.4332982019968769e-02 -8.9935050577098448e+00 0.0000000000000000e+00  4.6478855041734463e-02 -7.0198176990104210e-03 0.0000000000000000e+00  4.1465981147652542e-02 -1.1627479410174939e-02 0.0000000000000000e+00  3.6160394280993366e-02 -1.5548946790751845e-02 0.0000000000000000e+00  1.4979023692358321e-02 -1.7113068976198392e-02 0.0000000000000000e+00  8.0946712514636341e-03 -2.0239484165961646e-02 0.0000000000000000e+00  3.2796432704412285e-03 -2.0326001775347258e-02 0.0000000000000000e+00  -1.2506450609612656e-03 -2.0478332109769102e-02 0.0000000000000000e+00  -1.0086638945559178e-02 -1.9131809862906104e-02 0.0000000000000000e+00  -4.5447754711523847e-02 9.0759968662716389e-03 0.0000000000000000e+00  -4.0975558896094937e-02 1.2390951924944441e-02 0.0000000000000000e+00  -3.5875669240219413e-02 1.7819754951678823e-02 0.0000000000000000e+00  -5.1410704471692497e-03 -9.0183972252551090e+00 0.0000000000000000e+00  -1.1679172396565976e-02 -9.3503542420842756e+00 0.0000000000000000e+00  5.9844418009984846e-03 -9.0140166178277905e+00 0.0000000000000000e+00  0.0000000000000000e+00 0.0000000000000000e+00 0.0000000000000000e+00  0.0000000000000000e+00 0.0000000000000000e+00 0.0000000000000000e+00  2.0277055550707312e-02 -9.0115885038173626e+00 0.0000000000000000e+00  9.8057296893353813e-03 -9.3403675658999408e+00 0.0000000000000000e+00  2.7268559856875641e-02 -9.0048158205014879e+00 0.0000000000000000e+00  6.1754060334850855e-02 -1.5432079304256777e-02 0.0000000000000000e+00  5.9158345533611933e-02 -1.7427426358905054e-02 0.0000000000000000e+00  5.6962930333115322e-02 -2.0410229860149239e-02 0.0000000000000000e+00  1.9826823088556086e-02 -8.6046664340237462e-03 0.0000000000000000e+00  9.2965509546021254e-03 -1.0653797691963309e-02 0.0000000000000000e+00  2.7483126302000351e-03 -1.0605633975003664e-02 0.0000000000000000e+00  -3.7465586707139120e-03 -1.0523401440986459e-02 0.0000000000000000e+00  -1.5626605064891153e-02 -8.0255201603206486e-03 0.0000000000000000e+00  -6.0120630258872300e-02 1.7498845341017782e-02 0.0000000000000000e+00  -5.7450030186221579e-02 1.9355161049983832e-02 0.0000000000000000e+00  -5.5087890765599126e-02 2.1995585768937308e-02 0.0000000000000000e+00  -1.1927534327876068e-02 -9.0317798872281347e+00 0.0000000000000000e+00  -1.4290941963771179e-02 -9.3613747004772279e+00 0.0000000000000000e+00  5.2737791201517550e-03 -9.0251609756873741e+00 0.0000000000000000e+00  0.0000000000000000e+00 0.0000000000000000e+00 0.0000000000000000e+00  0.0000000000000000e+00 0.0000000000000000e+00 0.0000000000000000e+00  2.0248513126581658e-02 -9.0217140738939676e+00 0.0000000000000000e+00  9.5533778767465539e-03 -9.3502664248226086e+00 0.0000000000000000e+00  2.7253143272151899e-02 -9.0162226633111775e+00 0.0000000000000000e+00  6.7190750967814156e-02 -1.9890297195525711e-02 0.0000000000000000e+00  6.6579042222727661e-02 -2.0220445448971884e-02 0.0000000000000000e+00  6.5981085499458317e-02 -2.1334322506345149e-02 0.0000000000000000e+00  2.0985369018836127e-02 4.2974310386354143e-03 0.0000000000000000e+00  9.3020396597232879e-03 1.0542924789403334e-03 0.0000000000000000e+00  2.0131099273233452e-03 9.3121454031888857e-04 0.0000000000000000e+00  -5.1172578551871243e-03 1.3082148098115601e-03 0.0000000000000000e+00  -1.7967508586679171e-02 5.1617430629332852e-03 0.0000000000000000e+00  -6.4790112603480068e-02 2.2031969759054575e-02 0.0000000000000000e+00  -6.4179904525839340e-02 2.1958005462346740e-02 0.0000000000000000e+00  -6.3682215192903707e-02 2.2580375072512881e-02 0.0000000000000000e+00  -1.3949376128614823e-02 -9.0434193413573745e+00 0.0000000000000000e+00  -1.4811458565139221e-02 -9.3709351394824694e+00 0.0000000000000000e+00  5.3178100402321588e-03 -9.0348388244843356e+00 0.0000000000000000e+00  -4.5437680789294809e-11 -2.5855366595342284e-10 0.0000000000000000e+00  0.0000000000000000e+00 0.0000000000000000e+00 0.0000000000000000e+00  1.9403263950427199e-02 -9.0304620879408812e+00 0.0000000000000000e+00  7.7383483914510156e-03 -9.3587927066115739e+00 0.0000000000000000e+00  2.4976377864739989e-02 -9.0260794586131130e+00 0.0000000000000000e+00  6.4004743989673749e-02 -2.1092905035515676e-02 0.0000000000000000e+00  6.4970028021295992e-02 -1.9835213245636672e-02 0.0000000000000000e+00  6.5958914861896506e-02 -1.9169363599494192e-02 0.0000000000000000e+00  1.9773159252833183e-02 1.7282551765450883e-02 0.0000000000000000e+00  8.4277450680471620e-03 1.3067589446314167e-02 0.0000000000000000e+00  1.3901858219392785e-03 1.2796203327589446e-02 0.0000000000000000e+00  -5.4454355127754343e-03 1.3448138854077474e-02 0.0000000000000000e+00  -1.7742323779385408e-02 1.8475789760684709e-02 0.0000000000000000e+00  -6.0943974172698027e-02 2.3142238180825909e-02 0.0000000000000000e+00  -6.1922239869982847e-02 2.1523793019514917e-02 0.0000000000000000e+00  -6.2925958137378279e-02 2.0524397737359919e-02 0.0000000000000000e+00  -1.1335110380158941e-02 -9.0515420076962467e+00 0.0000000000000000e+00  -1.3199330252939094e-02 -9.3774495490898708e+00 0.0000000000000000e+00  6.1933855730633989e-03 -9.0417131939773778e+00 0.0000000000000000e+00  0.0000000000000000e+00 0.0000000000000000e+00 0.0000000000000000e+00  0.0000000000000000e+00 0.0000000000000000e+00 0.0000000000000000e+00  1.7943691906963228e-02 -9.0366769984933750e+00 0.0000000000000000e+00  4.8326112617517319e-03 -9.3648528748607305e+00 0.0000000000000000e+00  2.1117745154886354e-02 -9.0332202375548611e+00 0.0000000000000000e+00  5.3749229831464095e-02 -1.9467459615159766e-02 0.0000000000000000e+00  5.5969354176996479e-02 -1.6907074217085521e-02 0.0000000000000000e+00  5.8184022302845598e-02 -1.4799108358776486e-02 0.0000000000000000e+00  1.6595442304658405e-02 2.9204548939855593e-02 0.0000000000000000e+00  6.9473989936094443e-03 2.3979995912542608e-02 0.0000000000000000e+00  9.1149577602023062e-04 2.3553869728128028e-02 0.0000000000000000e+00  -4.8567888893466318e-03 2.4388218462738986e-02 0.0000000000000000e+00  -1.5307260581210796e-02 3.0390672753495527e-02 0.0000000000000000e+00  -5.0127154039730837e-02 2.1430644941289267e-02 0.0000000000000000e+00  -5.2340968252924093e-02 1.8578417058372970e-02 0.0000000000000000e+00  -5.4569821319106884e-02 1.6182498533642186e-02 0.0000000000000000e+00  -5.2776757963068381e-03 -9.0552570891611897e+00 0.0000000000000000e+00  -9.8740809926669715e-03 -9.3800716789508272e+00 0.0000000000000000e+00  7.8051242786983180e-03 -9.0448793079282588e+00 0.0000000000000000e+00  0.0000000000000000e+00 0.0000000000000000e+00 0.0000000000000000e+00  0.0000000000000000e+00 0.0000000000000000e+00 0.0000000000000000e+00  1.6094989389698680e-02 -9.0396986986882535e+00 0.0000000000000000e+00  1.3085467050148794e-03 -9.3678342010593312e+00 0.0000000000000000e+00  1.6344759222473564e-02 -9.0369622934413361e+00 0.0000000000000000e+00  3.8150878875560172e-02 -1.5573694895821598e-02 0.0000000000000000e+00  4.1271024046407506e-02 -1.2058731477717705e-02 0.0000000000000000e+00  4.4374920908832806e-02 -8.8450298422526955e-03 0.0000000000000000e+00  1.1918477886204907e-02 3.8772515103549211e-02 0.0000000000000000e+00  5.0066314739648822e-03 3.2662399793541845e-02 0.0000000000000000e+00  5.7912509209706803e-04 3.2068759465849507e-02 0.0000000000000000e+00  -3.5323423143547119e-03 3.2995202000208210e-02 0.0000000000000000e+00  -1.1155700998570162e-02 3.9706344191870684e-02 0.0000000000000000e+00  -3.4093926368364821e-02 1.7462950941442710e-02 0.0000000000000000e+00  -3.7188303464806435e-02 1.3738310681660598e-02 0.0000000000000000e+00  -4.0291567885991891e-02 1.0322740209725966e-02 0.0000000000000000e+00  3.0578320792429285e-03 -9.0542480877493237e+00 0.0000000000000000e+00  -5.4451618606974729e-03 -9.3785163258833180e+00 0.0000000000000000e+00  9.9289872674503902e-03 -9.0439688821986230e+00 0.0000000000000000e+00  0.0000000000000000e+00 0.0000000000000000e+00 0.0000000000000000e+00  0.0000000000000000e+00 0.0000000000000000e+00 0.0000000000000000e+00  1.4086488761463874e-02 -9.0393274295507062e+00 0.0000000000000000e+00  -2.3842267777192086e-03 -9.3675616718236547e+00 0.0000000000000000e+00  1.1282208422749858e-02 -9.0370804278873642e+00 0.0000000000000000e+00  1.9032040675382497e-02 -1.0002354946730489e-02 0.0000000000000000e+00  2.2694868894003312e-02 -5.9144594629170436e-03 0.0000000000000000e+00  2.6338950151553884e-02 -1.9778278154361081e-03 0.0000000000000000e+00  6.2565221200378716e-03 4.5008404347445657e-02 0.0000000000000000e+00  2.7860977781121216e-03 3.8250130452518606e-02 0.0000000000000000e+00  3.8238638588030207e-04 3.7504519598835127e-02 0.0000000000000000e+00  -1.6771467035254469e-03 3.8437550975045892e-02 0.0000000000000000e+00  -5.8111548425518389e-03 4.5538292867450439e-02 0.0000000000000000e+00  -1.4693536842574876e-02 1.1838179336770931e-02 0.0000000000000000e+00  -1.8311232850400282e-02 7.6385784071307545e-03 0.0000000000000000e+00  -2.1945565957458384e-02