<?xml version="1.0"?>
<VTKFile type="UnstructuredGrid"  version="0.1"  >
<UnstructuredGrid>
<Piece  NumberOfPoints="589" NumberOfCells="1080">
<Points>
<DataArray  type="Float64"  NumberOfComponents="3"  format="ascii">-9 0 0  -8 0 0  -7 0 0  -6 0 0  -5 0 0  -4 0 0  -3 0 0  -2 0 0  -1 0 0  0 0 0  1 0 0  2 0 0  3 0 0  4 0 0  5 0 0  6 0 0  7 0 0  8 0 0  9 0 0  -9 2 0  -8.000005137502454 1.999991771628796 0  -7.000010815629464 1.999984589710464 0  -6.000018310126296 1.999979308240962 0  -5.000030539760126 1.999976313737693 0  -4.000017660144017 1.999982158686894 0  -3.000004403117178 1.999987889293372 0  -1.999998001973976 1.999993343707046 0  -0.9999970812704161 1.999997644592556 0  4.376409427845039e-07 1.999999479214328 0  0.9999977883876843 1.999998025555705 0  1.999998140659842 1.999993577028244 0  3.000003655381556 1.999988086185563 0  4.00001508224724 1.999982061239379 0  5.00003179363337 1.999979107472613 0  6.000019452988912 1.999980234201487 0  7.000011672193798 1.999984854370448 0  8.000005596493544 1.999991828435234 0  9 2 0  -9.000000000004983 4 0  -8.000008112432431 3.999979357840532 0  -7.000014365817038 3.999961577915413 0  -6.000017679664142 3.999949468776252 0  -5.000018301445132 3.99994571700083 0  -3.999999225450834 3.999948290149554 0  -2.999986447669799 3.999964663891697 0  -1.999983218908285 3.999986084925849 0  -0.9999882811404114 4.00000330775025 0  2.156965522362601e-06 4.000010109150328 0  0.9999924487450154 4.000004255366928 0  1.999986916923511 3.999988874356906 0  2.99998991090881 3.999968021458426 0  4.00000278011496 3.999946781207965 0  5.000022330018353 3.999938760744804 0  6.000020666448287 3.999946494968142 0  7.000016523854995 3.999960293662286 0  8.000009275944931 3.999978867387267 0  9 4 0  -9 6 0  -8.000018523061298 5.999955497111443 0  -7.000029674128707 5.999915884835823 0  -6.000027817433026 5.999886201674197 0  -5.000011312457437 5.999871306095965 0  -3.999973688375618 5.999895484514853 0  -2.999956541461326 5.999946547041525 0  -1.999963192822337 6.000000207189002 0  -0.9999800395548976 6.000030146478982 0  2.750964666992609e-06 6.000036025812221 0  0.9999871456341741 6.000025884069045 0  1.999975220557668 5.999998073561883 0  2.999970862322351 5.999951115505796 0  3.999980192062768 5.999902179598324 0  5.000013245242265 5.999877255389663 0  6.000031795995615 5.999888499696032 0  7.000033796170341 5.999916634980203 0  8.000021066628889 5.999955672845013 0  9 6 0  -9 8 0  -8.000058415962048 7.999912083226213 0  -7.000097009918853 7.999830485367637 0  -6.000096546058079 7.999763794293253 0  -5.000040476623161 7.999726170231416 0  -3.999967697719354 7.999838844814474 0  -2.999980289207373 7.999971566869256 0  -2.000006957049555 8.000036753655422 0  -1.00000907570815 8.000044814629458 0  7.106613233048428e-06 8.000047263172073 0  1.000018961639174 8.000053847340238 0  2.000013454417061 8.000025504885963 0  2.999980948000385 7.999977352977938 0  3.999969918085956 7.999859120631091 0  5.00004316798446 7.999725841739755 0  6.000109120467752 7.99976295503061 0  7.000109978647286 7.999829377190975 0  8.000066198092769 7.999911329687357 0  9 8 0  -9 10 0  -8.000177550161107 9.999843431431174 0  -7.000320526380531 9.999685517484862 0  -6.000387647954683 9.999525215600189 0  -5.000321376359137 9.999362195868381 0  -4.000206312984733 9.999725218018069 0  -3.000223620502725 10.0000378674945 0  -2.000176354609058 9.99998603198646 0  -1.000075311114856 9.999969408842439 0  -2.794555651684493e-07 9.999965337788421 0  1.000074554328232 9.9999654388044 0  2.000174750457956 9.999962652601459 0  3.000262148818093 10.00007739682103 0  4.000250477419507 9.999769406552542 0  5.000385651715554 9.999363450115805 0  6.000446716121512 9.999520257407912 0  7.00036464863074 9.999680044380455 0  8.000200955266878 9.999840144744592 0  9 10 0  -9 12 0  -8.000434764299412 11.99978024137821 0  -7.000847108417488 11.99955023666539 0  -6.001211639513172 11.99929774392942 0  -5.001496804525314 11.99900571558423 0  -4.001437789968455 11.99966609964742 0  -3.001489030622165 12.00031973883084 0  -2.001005708258297 12.00024362874452 0  -1.000470701390525 12.00020389050305 0  8.314019383571428e-05 12.00019886080449 0  1.00064086046624 12.00023015627586 0  2.00118936218097 12.00030613946252 0  3.001702551846324 12.00044748388431 0  4.001643485548964 11.99970683004943 0  5.001684258896605 11.99895992291714 0  6.001356311407253 11.99926583311914 0  7.000945557015943 11.99952957598397 0  8.000484597315133 11.99977001345277 0  9 12 0  -9 14 0  -8.000781215221355 13.99975812600563 0  -7.001564231059815 13.99950506432641 0  -6.002351877176648 13.99922864319911 0  -5.003149674663745 13.9989147617291 0  -4.003157586423424 13.9996842048014 0  -3.003160450280745 14.00046323014076 0  -2.002042640345159 14.00035590529016 0  -1.000941778005036 14.0002996863461 0  0.0001511946704299885 14.00028722339503 0  1.001244761006877 14.00031630000931 0  2.002346550845859 14.00038843821709 0  3.003462175521102 14.00050748809569 0  4.003469792438191 13.99967765502689 0  5.003477227497141 13.99885263476516 0  6.002595970644037 13.99918046021898 0  7.001726603113303 13.99947255851247 0  8.000862362222861 13.99974181197673 0  9 14 0  -9 16 0  -8.001119859962555 15.99978082115228 0  -7.002261836287288 15.99955345689703 0  -6.003449902806145 15.99930957556712 0  -5.004711869548609 15.99904068612932 0  -4.004756995018759 15.9996926479361 0  -3.00471241741439 16.00034089990138 0  -2.003013368622702 16.00026425699951 0  -1.001381968127048 16.00022086232508 0  0.000216947553816432 16.00020979593636 0  1.001816578161512 16.00023056329582 0  2.003450063893277 16.00028345879748 0  3.005152589569704 16.00036939798627 0  4.005200844671307 15.99965591786825 0  5.005159830759745 15.99894167914571 0  6.003786096326132 15.99923826144512 0  7.002485940474595 15.99950710627016 0  8.001231891622631 15.99975797092241 0  9 16 0  -9 18 0  -8.001369410834409 17.99983627319194 0  -7.002773934032085 17.99966798303964 0  -6.004250486701116 17.99949064353427 0  -5.005839597336879 17.99929994614302 0  -4.005908091772346 17.99969346419892 0  -3.005840350076612 18.00008622920158 0  -2.003715555527584 18.00004003564781 0  -1.00169315802572 18.00001315869003 0  0.0002798474178852694 18.00000546385747 0  1.002253916264358 18.00001673730808 0  2.004279436365737 18.00004671302023 0  3.006409185176241 18.00009497435614 0  4.006480346407836 17.99963937595931 0  5.006413497293827 17.99918481169381 0  6.0046796355755 17.99940719144376 0  7.00305941645296 17.99961368217902 0  8.001511967579981 17.99980951268806 0  9 18 0  -9 20 0  -8.001477923836754 19.99990996923987 0  -7.002996743003347 19.99981872352465 0  -6.004598915345476 19.99972517968213 0  -5.006330028634734 19.99962851618277 0  -4.006408313105283 19.99969197407998 0  -3.006329475831263 19.99975463364964 0  -2.004010490063179 19.99973885837657 0  -1.001807867099585 19.99972904882406 0  0.0003384844414614352 19.99972558054501 0  1.002486514117743 19.99972841564729 0  2.004694174577142 19.99973711776203 0  3.007021579123105 19.99975081509671 0  4.007102508026281 19.99963072324954 0  5.007023434529032 19.99951130258151 0  6.005116254775952 19.99963972935959 0  7.003340357315953 19.99976292453414 0  8.001649350747154 19.99988241935937 0  8.9999999999827 19.99999999999644 0  -9 22 0  -8.001422306808459 21.9999885156083 0  -7.002884966815933 21.99997865727158 0  -6.004429611607098 21.99997220210996 0  -5.006100422585344 21.99997123277569 0  -4.00617699582594 21.99968737670218 0  -3.006099585793643 21.99940267503426 0  -2.003842362941293 21.99941392363876 0  -1.001698605357895 21.99941968969938 0  0.0003904317553379617 21.9994206011537 0  1.002481749596747 21.99941673648915 0  2.004632376346847 21.99940763539764 0  3.006901140919903 21.99939228868807 0  4.006979736838172 21.99962754343403 0  5.006900117147389 21.99986312838042 0  6.005025482600647 21.9998931853163 0  7.003280369422741 21.99992695558881 0  8.001619455570639 21.99996295720931 0  9 22 0  -9 24 0  -8.00120470347637 24.00006056118308 0  -7.002444039410822 24.00012498291225 0  -6.003753624307027 24.00019728447056 0  -5.00517100753332 24.00028180830471 0  -4.005236728536985 23.99967997465947 0  -3.005170632873479 23.9990773770044 0  -2.003222713890894 23.99911082569649 0  -1.001371534507155 23.99912966225915 0  0.00043332613668531 23.99913464006267 0  1.002240970531109 23.99912591190736 0  2.004100539335821 23.99910303285785 0  3.006062568778741 23.99906495618598 0  4.0061290934822 23.99962860028785 0  5.006058612958065 24.00019237931933 0  6.004414463619906 24.00013176888422 0  7.002882295347387 24.00008204600609 0  8.001423140626738 24.00003931466341 0  9 24 0  -9 26 0  -8.000847909847975 26.00011717975137 0  -7.001720799524051 26.00023980563569 0  -6.002644342082733 26.00037348616613 0  -5.003645490086216 26.00052416347535 0  -4.003693376375145 25.99967027261182 0  -3.003646098506871 25.99881575818044 0  -2.002218379489317 25.99886596115886 0  -1.000860214989708 25.99889485617183 0  0.0004651869136925328 25.99890328810514 0  1.001793734423121 25.99889147222099 0  2.003161377280794 25.99885899435755 0  3.004605034286967 25.99880480983361 0  4.004652173850709 25.99963268217946 0  5.004598268687807 26.00046052863257 0  6.003353392016584 26.00032679425252 0  7.002190878872351 26.00020916939332 0  8.001082162602703 26.00010200884983 0  9 26 0  -9 28 0  -8.000390417994172 28.00015203051637 0  -7.000793534230196 28.00031042418645 0  -6.001222430302165 28.0004817101808 0  -5.00169080656298 28.00067275372466 0  -4.001716100488452 27.99965910958912 0  -3.00169261672098 27.99864505690247 0  -2.000938057342804 27.99870609871095 0  -1.00021885545846 27.9987416705282 0  0.0004845651490688904 27.99875269457933 0  1.001191335681451 27.9987394430883 0  2.001920629015405 27.99870153954049 0  3.002692146971339 27.99863795754761 0  4.002715117301673 27.99963886239759 0  5.002683034014663 28.00063965388579 0  6.001960696413547 28.00045738787735 0  7.001282916769396 28.00029444793643 
[...]
<PointData  Vectors="f_44-0"> 
<DataArray  type="Float64"  Name="f_44-0"  NumberOfComponents="3" format="ascii">0.0000000000000000e+00 0.0000000000000000e+00 0.0000000000000000e+00  6.6166342910508996e-07 -1.1786067958708896e+01 0.0000000000000000e+00  5.6432783462810606e-07 -1.2067439692481626e+01 0.0000000000000000e+00  7.4802153869254649e-07 -1.1512425839060006e+01 0.0000000000000000e+00  0.0000000000000000e+00 0.0000000000000000e+00 0.0000000000000000e+00  0.0000000000000000e+00 0.0000000000000000e+00 0.0000000000000000e+00  0.0000000000000000e+00 0.0000000000000000e+00 0.0000000000000000e+00  0.0000000000000000e+00 0.0000000000000000e+00 0.0000000000000000e+00  0.0000000000000000e+00 0.0000000000000000e+00 0.0000000000000000e+00  0.0000000000000000e+00 0.0000000000000000e+00 0.0000000000000000e+00  0.0000000000000000e+00 0.0000000000000000e+00 0.0000000000000000e+00  0.0000000000000000e+00 0.0000000000000000e+00 0.0000000000000000e+00  0.0000000000000000e+00 0.0000000000000000e+00 0.0000000000000000e+00  0.0000000000000000e+00 0.0000000000000000e+00 0.0000000000000000e+00  0.0000000000000000e+00 0.0000000000000000e+00 0.0000000000000000e+00  6.7482474561493127e-07 -1.1792006339505230e+01 0.0000000000000000e+00  5.7151459199064796e-07 -1.2074582689805100e+01 0.0000000000000000e+00  7.5596034300681965e-07 -1.1519723832452348e+01 0.0000000000000000e+00  0.0000000000000000e+00 0.0000000000000000e+00 0.0000000000000000e+00  0.0000000000000000e+00 0.0000000000000000e+00 0.0000000000000000e+00  -6.0432781805979170e-02 -1.1624589790818634e+01 0.0000000000000000e+00  -1.5154776576760003e-02 -1.2087490693449082e+01 0.0000000000000000e+00  4.7215722579208898e-03 -1.1615009521614086e+01 0.0000000000000000e+00  1.6549689447609723e-03 -2.9783641871908432e-06 0.0000000000000000e+00  1.5768441452276088e-03 -4.7504256856986118e-04 0.0000000000000000e+00  8.1736565688697723e-04 -2.3842908429111908e-04 0.0000000000000000e+00  5.5501054987074517e-04 1.9933442495879660e-04 0.0000000000000000e+00  3.2301330151337089e-04 4.1823230129856129e-04 0.0000000000000000e+00  1.7931932605225892e-04 3.1209029840347587e-04 0.0000000000000000e+00  3.0459221568607711e-05 1.2642489659270125e-05 0.0000000000000000e+00  -1.1691648467642638e-04 -3.4064893499548331e-04 0.0000000000000000e+00  -4.1025942393659791e-04 -8.9834306208558170e-04 0.0000000000000000e+00  -8.9369456746607977e-04 -9.8884290478449882e-04 0.0000000000000000e+00  -1.6665141086332227e-03 -1.8944327535924872e-03 0.0000000000000000e+00  -6.2149333219535460e-02 -1.1632813249129692e+01 0.0000000000000000e+00  -1.5859122759787351e-02 -1.2095948731309186e+01 0.0000000000000000e+00  3.3999026112670016e-03 -1.1623540079202108e+01 0.0000000000000000e+00  0.0000000000000000e+00 0.0000000000000000e+00 0.0000000000000000e+00  0.0000000000000000e+00 0.0000000000000000e+00 0.0000000000000000e+00  -9.1787178231839805e-03 -1.1616481473533671e+01 0.0000000000000000e+00  -3.0316156828040175e-02 -1.2065794672751215e+01 0.0000000000000000e+00  -9.0790812340384979e-03 -1.1618315192211174e+01 0.0000000000000000e+00  -7.3042789359818348e-04 -7.5031174543050598e-04 0.0000000000000000e+00  -1.8220273751488713e-05 7.9526456379180714e-04 0.0000000000000000e+00  1.7049549878124549e-05 1.8167599834934059e-03 0.0000000000000000e+00  -1.0640586654367818e-04 1.5816271446486194e-03 0.0000000000000000e+00  -3.7234384214717770e-04 5.6108484448795818e-04 0.0000000000000000e+00  -3.5572989462018722e-04 -2.5375062067088563e-04 0.0000000000000000e+00  -1.1395861460507995e-04 -2.8500192997461083e-04 0.0000000000000000e+00  5.3898601170470977e-04 -5.4921649269904882e-04 0.0000000000000000e+00  6.0593579991708563e-04 -7.9357916800064485e-04 0.0000000000000000e+00  1.7571607239950048e-04 7.3234657830663027e-05 0.0000000000000000e+00  -4.1376551753154715e-04 9.0810245055709894e-04 0.0000000000000000e+00  -1.0359888992300552e-02 -1.1621932105416706e+01 0.0000000000000000e+00  -3.1417605929724673e-02 -1.2069675563670881e+01 0.0000000000000000e+00  -1.0961338106730520e-02 -1.1621916322019171e+01 0.0000000000000000e+00  0.0000000000000000e+00 0.0000000000000000e+00 0.0000000000000000e+00  0.0000000000000000e+00 0.0000000000000000e+00 0.0000000000000000e+00  4.7563077354223172e-03 -1.1614296610129827e+01 0.0000000000000000e+00  -6.3533515769966529e-03 -1.2047907345466125e+01 0.0000000000000000e+00  -3.8944692623570317e-03 -1.1597633613207284e+01 0.0000000000000000e+00  -2.1194988367683586e-03 3.3434267880088856e-03 0.0000000000000000e+00  -1.5079829664283759e-03 5.0864673405884428e-03 0.0000000000000000e+00  -1.6744953926386306e-03 3.7034485189120134e-03 0.0000000000000000e+00  -2.3091879583348410e-03 -6.0689130784457625e-04 0.0000000000000000e+00  -1.3314781484979035e-03 -2.6475103199984887e-03 0.0000000000000000e+00  -5.4059626288520114e-05 -1.6419414531231873e-03 0.0000000000000000e+00  9.7489015313492636e-04 -9.0526939855471039e-04 0.0000000000000000e+00  9.8697306680116978e-04 -3.7242697153263275e-04 0.0000000000000000e+00  1.4942482422903851e-03 6.1324400829443175e-04 0.0000000000000000e+00  1.9457138516154643e-03 -5.7388594076122098e-04 0.0000000000000000e+00  2.8843770057383273e-04 -2.2297010802866811e-03 0.0000000000000000e+00  4.8445389026527284e-03 -1.1619262868549860e+01 0.0000000000000000e+00  -1.0851472719583534e-02 -1.2057966179244746e+01 0.0000000000000000e+00  -1.0376889441341011e-02 -1.1613053190859439e+01 0.0000000000000000e+00  0.0000000000000000e+00 0.0000000000000000e+00 0.0000000000000000e+00  0.0000000000000000e+00 0.0000000000000000e+00 0.0000000000000000e+00  7.2754284703031224e-03 -1.1621261441397635e+01 0.0000000000000000e+00  1.4108222301937080e-03 -1.2059522298939248e+01 0.0000000000000000e+00  -2.1162986942495395e-04 -1.1619079172560264e+01 0.0000000000000000e+00  -8.4802325723734497e-03 2.2327833493852988e-03 0.0000000000000000e+00  -1.0964430129090591e-02 4.3819992706717065e-03 0.0000000000000000e+00  -3.8098121048231368e-03 -3.5149766535875157e-03 0.0000000000000000e+00  -3.1396523958699702e-03 -8.2413450012726111e-03 0.0000000000000000e+00  6.8401823771447505e-04 -4.8571988146045983e-03 0.0000000000000000e+00  1.6480606869312706e-03 -4.3039779560860728e-03 0.0000000000000000e+00  3.7238836664296631e-03 -8.1409894635930853e-03 0.0000000000000000e+00  3.5234861297600045e-03 -1.6231375876193061e-03 0.0000000000000000e+00  1.3988323755794832e-02 -4.4214378276645361e-03 0.0000000000000000e+00  1.5243916957943159e-02 -9.9661752159841809e-03 0.0000000000000000e+00  8.6869775589448559e-03 -7.2110464541302616e-03 0.0000000000000000e+00  4.3347189106497166e-03 -1.1621516709583823e+01 0.0000000000000000e+00  6.3176887282268869e-04 -1.2054613870763200e+01 0.0000000000000000e+00  -2.6141476306056925e-03 -1.1609086758803347e+01 0.0000000000000000e+00  0.0000000000000000e+00 0.0000000000000000e+00 0.0000000000000000e+00  0.0000000000000000e+00 0.0000000000000000e+00 0.0000000000000000e+00  7.7979572270929290e-03 -1.1620085078035689e+01 0.0000000000000000e+00  4.9031303998710472e-03 -1.2051633932207777e+01 0.0000000000000000e+00  7.5024126970514981e-03 -1.1598232987202120e+01 0.0000000000000000e+00  -3.5434574158449195e-02 2.3908261531442602e-02 0.0000000000000000e+00  -2.8019503949691753e-02 1.3958323159066439e-02 0.0000000000000000e+00  -1.3523333427352180e-02 5.4810806809884247e-03 0.0000000000000000e+00  3.7525257374686400e-03 -1.3818612001111326e-02 0.0000000000000000e+00  2.5425953378530940e-03 -5.1527898240793027e-03 0.0000000000000000e+00  3.8174790672223435e-03 -3.5629211996316295e-03 0.0000000000000000e+00  4.8983106826137792e-03 -3.9002083370958929e-03 0.0000000000000000e+00  2.9834887635285779e-03 -4.3566381279045423e-03 0.0000000000000000e+00  2.4606561539259140e-02 -9.1313752867656448e-03 0.0000000000000000e+00  3.1031805907815579e-02 -1.1886147031062574e-02 0.0000000000000000e+00  3.0406478769646760e-02 -9.1582518824922000e-03 0.0000000000000000e+00  6.7838802082591911e-03 -1.1612551935931302e+01 0.0000000000000000e+00  1.2779142783849202e-04 -1.2050974617132042e+01 0.0000000000000000e+00  1.0060312940321974e-03 -1.1608699056277805e+01 0.0000000000000000e+00  0.0000000000000000e+00 0.0000000000000000e+00 0.0000000000000000e+00  0.0000000000000000e+00 0.0000000000000000e+00 0.0000000000000000e+00  1.1242649972266107e-02 -1.1626143050160033e+01 0.0000000000000000e+00  1.3790369431851811e-02 -1.2055859012098114e+01 0.0000000000000000e+00  1.9540800443977623e-02 -1.1604099168753365e+01 0.0000000000000000e+00  4.7153447190644867e-04 2.3165206279434938e-02 0.0000000000000000e+00  -7.4370548581131797e-03 1.6224985421402736e-02 0.0000000000000000e+00  -1.6873647692830937e-02 1.8268364643471487e-02 0.0000000000000000e+00  -6.9911622524672342e-03 -1.1489620939329712e-02 0.0000000000000000e+00  -2.5059280558544401e-03 -8.9772258348527721e-03 0.0000000000000000e+00  1.5198402544648891e-04 -5.9317449460020181e-03 0.0000000000000000e+00  2.1878964300160497e-04 -8.2838393989394521e-03 0.0000000000000000e+00  -7.7048174460577464e-03 -1.8009661040556485e-02 0.0000000000000000e+00  -6.7905627853386413e-03 -1.8110870766343601e-02 0.0000000000000000e+00  3.9526094851070302e-03 -6.1006638125872172e-03 0.0000000000000000e+00  1.1680029526515910e-02 1.1231701672265407e-02 0.0000000000000000e+00  4.6341016324875405e-03 -1.1616033035392663e+01 0.0000000000000000e+00  -5.8787937497512292e-03 -1.2059757208703154e+01 0.0000000000000000e+00  -5.1937130035623405e-04 -1.1617408556879587e+01 0.0000000000000000e+00  0.0000000000000000e+00 0.0000000000000000e+00 0.0000000000000000e+00  0.0000000000000000e+00 0.0000000000000000e+00 0.0000000000000000e+00  1.5822184123594377e-02 -1.1643185195171622e+01 0.0000000000000000e+00  2.4495301757208911e-02 -1.2071977821576626e+01 0.0000000000000000e+00  3.5628663714356461e-02 -1.1620584957712389e+01 0.0000000000000000e+00  4.5648897049724024e-02 1.4913079066572486e-02 0.0000000000000000e+00  4.1280393060774030e-02 3.1707275104977889e-03 0.0000000000000000e+00  3.8908919636730620e-02 -1.4386043613748468e-02 0.0000000000000000e+00  3.3548772362989511e-02 -9.0856479530185481e-04 0.0000000000000000e+00  1.6481831775396676e-02 5.4042061234275606e-03 0.0000000000000000e+00  2.0715382436404276e-03 8.4231297800308469e-03 0.0000000000000000e+00  -1.0707015103628042e-02 7.1300898188833388e-03 0.0000000000000000e+00  -2.3286315714119467e-02 2.4474637366419115e-03 0.0000000000000000e+00  -4.4931207922255342e-02 -7.0974972299337347e-03 0.0000000000000000e+00  -4.0565664559195913e-02 4.6905874905890151e-03 0.0000000000000000e+00  -3.8152695426691217e-02 1.4164430350596268e-02 0.0000000000000000e+00  -2.0807584927851196e-02 -1.1639196424046013e+01 0.0000000000000000e+00  -1.1901813374125310e-02 -1.2080672856790430e+01 0.0000000000000000e+00  -3.8292679264211060e-03 -1.1638709868797127e+01 0.0000000000000000e+00  0.0000000000000000e+00 0.0000000000000000e+00 0.0000000000000000e+00  0.0000000000000000e+00 0.0000000000000000e+00 0.0000000000000000e+00  2.0150674597536215e-02 -1.1671562973818524e+01 0.0000000000000000e+00  3.4277545703403349e-02 -1.2100249013298022e+01 0.0000000000000000e+00  5.0603488543467481e-02 -1.1651440074635325e+01 0.0000000000000000e+00  7.9427516320730362e-02 4.8545081737032241e-03 0.0000000000000000e+00  7.6552376362753818e-02 -5.0521561806669661e-03 0.0000000000000000e+00  7.2619060344145947e-02 -1.4472706990477525e-02 0.0000000000000000e+00  4.5587782308968122e-02 4.1248725214984523e-02 0.0000000000000000e+00  2.2781537535605745e-02 4.0389994196650410e-02 0.0000000000000000e+00  2.2729655999265659e-03 4.1187534677254056e-02 0.0000000000000000e+00  -1.7715827712491829e-02 4.0001156510105974e-02 0.0000000000000000e+00  -4.2049027927489400e-02 3.6924454405836402e-02 0.0000000000000000e+00  -7.9672112193620873e-02 2.1956734475397318e-03 0.0000000000000000e+00  -7.7080701170029839e-02 1.1249015708241248e-02 0.0000000000000000e+00  -7.3163433566743097e-02 2.1729250790123382e-02 0.0000000000000000e+00  -4.4474821164524836e-02 -1.1676582883423881e+01 0.0000000000000000e+00  -2.3207580617815974e-02 -1.2113478213321340e+01 0.0000000000000000e+00  -6.7841518205765550e-03 -1.1670741759697375e+01 0.0000000000000000e+00  0.0000000000000000e+00 0.0000000000000000e+00 0.0000000000000000e+00  0.0000000000000000e+00 0.0000000000000000e+00 0.0000000000000000e+00  2.3126248696899551e-02 -1.1708416366122758e+01 0.0000000000000000e+00  4.0825867379030628e-02 -1.2137348711734537e+01 0.0000000000000000e+00  6.0330041946088618e-02 -1.1691830360934638e+01 0.0000000000000000e+00  1.0162326118583780e-01 -3.3382820863409371e-03 0.0000000000000000e+00  1.0059726937354872e-01 -8.9639158384962302e-03 0.0000000000000000e+00  9.8485166829012677e-02 -1.5242151215659432e-02 0.0000000000000000e+00  5.7331118634438710e-02 8.4552845081804842e-02 0.0000000000000000e+00  2.7576478538918040e-02 8.4304945753693405e-02 0.0000000000000000e+00  1.7808068093833739e-03 8.5226030943251735e-02 0.0000000000000000e+00  -2.3798490114164343e-02 8.4783563465526318e-02 0.0000000000000000e+00  -5.5050371774734853e-02 8.3540110524210912e-02 0.0000000000000000e+00  -1.0167050280268172e-01 1.0666648199272020e-02 0.0000000000000000e+00  -1.0050971934695473e-01 1.6173087948686816e-02 0.0000000000000000e+00  -9.8182810336634674e-02 2.2193156117490023e-02 0.0000000000000000e+00  -6.0422342530551086e-02 -1.1721357333596638e+01 0.0000000000000000e+00  -3.2676522072448706e-02 -1.2152547417570068e+01 0.0000000000000000e+00  -1.0020440399641851e-02 -1.1708984625228627e+01 0.0000000000000000e+00  0.0000000000000000e+00 0.0000000000000000e+00 0.0000000000000000e+00  0.0000000000000000e+00 0.0000000000000000e+00 0.0000000000000000e+00  2.4200266255473279e-02 -1.1749314972182018e+01 0.0000000000000000e+00  4.3084536902763287e-02 -1.2178606296423126e+01 0.0000000000000000e+00  6.3481881120761183e-02 -1.1736507802131085e+01 0.0000000000000000e+00  1.1091275934382180e-01 -9.6334212648071238e-03 0.0000000000000000e+00  1.1131710232016276e-01 -1.0840017324602758e-02 0.0000000000000000e+00  1.1015104523107674e-01 -1.2565051165902893e-02 0.0000000000000000e+00  6.1393512000627253e-02 1.3882131421566929e-01 0.0000000000000000e+00  2.9257500201367987e-02 1.3600437943714699e-01 0.0000000000000000e+00  1.0878188789315841e-03 1.3620252042779604e-01 0.0000000000000000e+00  -2.6835382294853175e-02 1.3660581513336645e-01 0.0000000000000000e+00  -6.1131240286938747e-02 1.3785632230057879e-01 0.0000000000000000e+00  -1.1053031121953810e-01 1.7219282078515169e-02 0.0000000000000000e+00  -1.1085370331715370e-01 1.8090709077738864e-02 0.0000000000000000e+00  -1.0966620047151229e-01 1.9424318519674699e-02 0.0000000000000000e+00  -6.7393824761017879e-02 -1.1768773844137048e+01 0.0000000000000000e+00  -3.7911270954960892e-02 -1.2194487401499888e+01 0.0000000000000000e+00  -1.2345183004583732e-02 -1.1749507395034568e+01 0.0000000000000000e+00  5.4080515390832316e-10 5.6113074857344580e-10 0.0000000000000000e+00  0.0000000000000000e+00 0.0000000000000000e+00 0.0000000000000000e+00  2.3241219190271740e-02 -1.1789442697215556e+01 0.0000000000000000e+00  4.0870518618436422e-02 -1.2219167975111111e+01 0.0000000000000000e+00  5.9904549420364162e-02 -1.1780310567343548e+01 0.0000000000000000e+00  1.0716798338252406e-01 -1.3925341667773733e-02 0.0000000000000000e+00  1.0861961132900808e-01 -1.0552565354197503e-02 0.0000000000000000e+00  1.0852283545841050e-01 -7.5712869553877611e-03 0.0000000000000000e+00  5.8807815649328285e-02 1.9415293100447797e-01 0.0000000000000000e+00  2.7891695128625806e-02 1.8914402057041615e-01 0.0000000000000000e+00  5.3469439446115780e-04 1.8865273171783223e-01 0.0000000000000000e+00  -2.6609078401750696e-02 1.8989020450472646e-01 0.0000000000000000e+00  -6.0194151595418938e-02 1.9363947071110418e-01 0.0000000000000000e+00  -1.0635216152724891e-01 2.1599446452247609e-02 0.0000000000000000e+00  -1.0772717937587771e-01 1.7904276930359685e-02 0.0000000000000000e+00  -1.0755958493515977e-01 1.4625654575373889e-02 0.0000000000000000e+00  -6.4657826744752567e-02 -1.1812976653266951e+01 0.0000000000000000e+00  -3.7686378513201904e-02 -1.2234286520019317e+01 0.0000000000000000e+00  -1.2720668217037212e-02 -1.1788136677742015e+01 0.0000000000000000e+00  0.0000000000000000e+00 0.0000000000000000e+00 0.0000000000000000e+00  0.0000000000000000e+00 0.0000000000000000e+00 0.0000000000000000e+00  2.0397109294401351e-02 -1.1824235155512232e+01 0.0000000000000000e+00  3.4566148361589652e-02 -1.2254460041999939e+01 0.0000000000000000e+00  5.0226189428781112e-02 -1.1818363273072245e+01 0.0000000000000000e+00  9.1546626307141249e-02 -1.6015686416771886e-02 0.0000000000000000e+00  9.3739074755319216e-02 -8.5204026465326085e-03 0.0000000000000000e+00  9.4575813217839533e-02 -1.3246022344115338e-03 0.0000000000000000e+00  4.9901682318114690e-02 2.4508081832852105e-01 0.0000000000000000e+00  2.3723954074405147e-02 2.3801428506446126e-01 0.0000000000000000e+00  1.2340927951742906e-04 2.3681309654358473e-01 0.0000000000000000e+00  -2.3253456783683506e-02 2.3872396339042973e-01 0.0000000000000000e+00  -5.2531022754354242e-02 2.4480385851882155e-01 0.0000000000000000e+00  -9.0322070734846521e-02 2.3741778833947860e-02 0.0000000000000000e+00  -9.2417748849018350e-02 1.5970098304772130e-02 0.0000000000000000e+00  -9.3185216386508826e-02 8.5092487359100921e-03 0.0000000000000000e+00  -5.3315708423362237e-02 -1.1849228840413959e+01 0.0000000000000000e+00  -3.2095431519177431e-02 -1.2267392128998729e+01 0.0000000000000000e+00  -1.0798863731052986e-02 -1.1820580044077294e+01 0.0000000000000000e+00  0.0000000000000000e+00 0.0000000000000000e+00 0.0000000000000000e+00  0.0000000000000000e+00 0.0000000000000000e+00 0.0000000000000000e+00  1.6025481662835038e-02 -1.1849869352632615e+01 0.0000000000000000e+00  2.4981472631579328e-02 -1.2280639076125901e+01 0.0000000000000000e+00  3.5706288211439403e-02 -1.1846567378220211e+01 0.0000000000000000e+00  6.6196668404788703e-02 -1.5898604246405650e-02 0.0000000000000000e+00  6.8820611909030022e-02 -5.1603985017092844e-03 0.0000000000000000e+00  7.0444901360338694e-02 5.3783416009770546e-03 0.0000000000000000e+00  3.5739471319606676e-02 2.8600073097676210e-01 0.0000000000000000e+00  1.7174186713935748e-02 2.7733260644595065e-01 0.0000000000000000e+00  -1.5169290287512515e-04 2.7548748581649163e-01 0.0000000000000000e+00  -1.7236586431367801e-02 2.7786397085011100e-01 0.0000000000000000e+00  -3.9200915570912438e-02 2.8588223624053333e-01 0.0000000000000000e+00  -6.4631806375302289e-02 2.3656084847803110e-02 0.0000000000000000e+00  -6.7138173917839425e-02 1.2710135157172531e-02 0.0000000000000000e+00  -6.8681132275655282e-02 1.9782722294961123e-03 0.0000000000000000e+00  -3.5181088111140138e-02 -1.1873746102070506e+01 0.0000000000000000e+00  -2.2077183883737750e-02 -1.2290223342995633e+01 0.0000000000000000e+00  -6.7817115851920226e-03 -1.1843270829905205e+01 0.0000000000000000e+00  0.0000000000000000e+00 0.0000000000000000e+00 0.0000000000000000e+00  0.0000000000000000e+00 0.0000000000000000e+00 0.0000000000000000e+00  1.0631326881252753e-02 -1.1863631072634861e+01 0.0000000000000000e+00  1.3229103942237112e-02 -1.2294956305248522e+01 0.0000000000000000e+00  1.8040110653846045e-02 -1.1861990668504715e+01 0.0000000000000000e+00  3.4001709020627838e-02 -1.3701412847127914e-02 0.0000000000000000e+00  3.6766058015509431e-02 -8.9950259445830294e-04 0.0000000000000000e+00  3.8994744746672645e-02 1.1802114497971561e-02 0.0000000000000000e+00  1.7861384984560382e-02 3.1250298896411166e-01 0.0000000000000000e+00  8.9295469111294601e-03 3.0287625224049769e-01 0.0000000000000000e+00  -3.0635501042520054e-04 3.0053906985553741e-01 0.0000000000000000e+00  -9.2790902571199593e-03 3.0313836389904791e-01 0.0000000000000000e+00  -2.1745229300095450e-02 3.1251582151328056e-01 0.0000000000000000e+00  -3.2199891677039620e-02 2.1479047396872106e-02 0.0000000000000000e+00  -3.4829810727647965e-02 8.5595071164004232e-03 0.0000000000000000e+00  -3.6969514620387695e-02 -4.