<?xml version="1.0"?>
<VTKFile type="UnstructuredGrid"  version="0.1"  >
<UnstructuredGrid>
<Piece  NumberOfPoints="589" NumberOfCells="1080">
<Points>
<DataArray  type="Float64"  NumberOfComponents="3"  format="ascii">-9 0 0  -8 0 0  -7 0 0  -6 0 0  -5 0 0  -4 0 0  -3 0 0  -2 0 0  -1 0 0  0 0 0  1 0 0  2 0 0  3 0 0  4 0 0  5 0 0  6 0 0  7 0 0  8 0 0  9 0 0  -9 2 0  -8.000002235689154 1.999996217468575 0  -7.000004757857003 1.99999290949957 0  -6.000008197212584 1.999990462789634 0  -5.000013958140961 1.999989048849946 0  -4.00000804546626 1.999991736632632 0  -3.000001885014877 1.999994345235854 0  -1.999998863746056 1.999996812781362 0  -0.9999983375326182 1.99999874271151 0  6.605779973754048e-07 1.999999518389871 0  0.9999996451718103 1.99999874337483 0  2.00000012266905 1.999996526368725 0  3.000003155039667 1.999993738343062 0  4.000009192926042 1.999990507609537 0  5.000018089553075 1.999988403331338 0  6.000011282404027 1.999989355502066 0  7.000006828594982 1.999991974888953 0  8.000003280181136 1.999995705926954 0  9 2 0  -9.000000000004983 4 0  -8.00000332545191 3.999990536772165 0  -7.000005846974516 3.999982374024221 0  -6.000007108121225 3.999976794531926 0  -5.000007244824875 3.999975039130313 0  -3.999998421265313 3.999976028255426 0  -2.999992421775261 3.999983405115556 0  -1.999990758378791 3.999993126163155 0  -0.9999928647400935 4.000000907384854 0  2.980331122473485e-06 4.000003859557101 0  0.9999988001567123 4.000000861249847 0  1.999996644566804 3.999993292303908 0  2.999998589820238 3.999982980702476 0  4.000005283808094 3.999972231507387 0  5.00001513439914 3.999967325375297 0  6.000013151382322 3.999972042237928 0  7.000010035547024 3.999979503315924 0  8.000005487359719 3.999989159856353 0  9 4 0  -9 6 0  -8.000007630826543 5.99997965458803 0  -7.000011977601907 5.999961505929177 0  -6.000010516797046 5.999947830306897 0  -5.000002486165879 5.999940855776928 0  -3.99998508779463 5.999951551791661 0  -2.999976970575427 5.999974600314549 0  -1.999979590922104 5.999998929218044 0  -0.9999869420520485 6.00001262094194 0  5.391843061538825e-06 6.000015230875937 0  0.9999983575736043 6.000010224101045 0  1.999993034301979 5.999996696439674 0  2.999991357705207 5.999973912783074 0  3.999996236977907 5.999949962863272 0  5.000012338950229 5.999937200636539 0  6.000019551652469 5.999943752557523 0  7.000018971753032 5.999958250429028 0  8.000011450989229 5.999977879894903 0  9 6 0  -9 8 0  -8.000025070867752 7.99995998741461 0  -7.000041337801422 7.999922747871381 0  -6.000040204276949 7.999892063922936 0  -5.000014143862893 7.999874195625172 0  -3.999980921248453 7.999924700334422 0  -2.99998557903844 7.999984479491741 0  -1.999996811273704 8.00001439687834 0  -0.9999973176026595 8.000018802767256 0  1.019381619915103e-05 8.0000202292123 0  1.000015567527986 8.000023178205216 0  2.000012886040297 8.000009222783858 0  2.999997740047739 7.99998550539197 0  3.999992889697187 7.999928641454642 0  5.000027877743837 7.999864773563622 0  6.000057120690149 7.999883682447786 0  7.000055669388926 7.999916473826962 0  8.000033133699331 7.99995663944753 0  9 8 0  -9 10 0  -8.000077716878236 9.999929236048635 0  -7.000140289676279 9.999857779761815 0  -6.000169588547055 9.999785055399251 0  -5.000140273991932 9.999710754396357 0  -4.000088341488837 9.999871897755213 0  -3.000094169487164 10.00001127459684 0  -2.000071779688783 9.999990529898056 0  -1.00002598880593 9.999983909640838 0  8.657039234367496e-06 9.999982291335179 0  1.000043547536258 9.999982098174579 0  2.000090530698908 9.999979993990808 0  3.000131192386895 10.00003229915987 0  4.000125897617336 9.999885461810166 0  5.000190425749479 9.999692654427022 0  6.00021744243123 9.99976810159902 0  7.000176688911018 9.999845211192381 0  8.000097197936256 9.999922626319593 0  9 10 0  -9 12 0  -8.00019089471207 11.99990127065584 0  -7.000372264393507 11.99979791188707 0  -6.000533282780152 11.99968440190647 0  -5.000660470018317 11.99955307056731 0  -4.000633913517107 11.99984359468801 0  -3.000654777538176 12.00013100856762 0  -2.000428348826763 12.00010009788456 0  -1.000180480547449 12.00008525518194 0  7.455794266538836e-05 12.00008583546582 0  1.000330109943096 12.00010274827682 0  2.000579996812955 12.00014001156026 0  3.000811642662014 12.00020737054466 0  4.000783886201861 11.99985495801397 0  5.000804652980355 11.99949951947217 0  6.000648722453768 11.99964591645097 0  7.00045259620375 11.99977275440799 0  8.000232051522291 11.99988879644161 0  9 12 0  -9 14 0  -8.000342082197493 13.99989184138195 0  -7.000685499273626 13.99977868072438 0  -6.001032053257902 13.99965508034854 0  -5.001384798722653 13.99951475161124 0  -4.001388095146916 13.9998496816693 0  -3.001387178058558 14.0001886860995 0  -2.00087084854008 14.00014542859377 0  -1.000363716946038 14.00012493959569 0  0.0001384510972946289 14.00012407995201 0  1.000639503539021 14.00014203735532 0  2.001142729281817 14.00017970579204 0  3.001650305352526 14.00023904806344 0  4.001653550487786 13.99984043308596 0  5.001658891446662 13.99944390459282 0  6.001240513471481 13.99960205727358 0  7.000826016575608 13.999743535583 0  8.000412831253856 13.99987435054341 0  9 14 0  -9 16 0  -8.000487808382434 15.99990243217861 0  -7.000985985060923 15.99980123399263 0  -6.001505732178872 15.99969271092665 0  -5.002059997230298 15.9995731041301 0  -4.002079944755295 15.99985156528456 0  -3.00205813071247 16.00012819631623 0  -2.001276885005877 16.00009979049344 0  -1.000527230389318 16.00008619264243 0  0.0002068376435456938 16.00008713587271 0  1.000940396212354 16.00010256273302 0  2.001688440066582 16.00013278697214 0  3.002466833231574 16.00017841727554 0  4.002489008019507 15.99982939206267 0  5.00247153327088 15.99947982084313 0  6.001816317342492 15.99962495907962 0  7.001193907277584 15.99975701478717 0  8.000592023336162 15.99988059062314 0  9 16 0  -9 18 0  -8.000591935589586 17.99992754728153 0  -7.001199958235445 17.99985309971768 0  -6.001840967414353 17.99977469709949 0  -5.002533500290815 17.99969046310391 0  -4.002563879943787 17.99985007976044 0  -3.002532018061045 18.00000917975702 0  -2.001556985543184 17.99999501082575 0  -1.000628586684278 17.99998937469399 0  0.0002772784612974814 17.9999923507251 0  1.001183568653769 18.0000039914547 0  2.002113211550169 18.0000243345334 0  3.003090214430708 18.00005335885624 0  4.003123190947083 17.99982070848823 0  5.003093283210974 17.99958835958326 0  6.002260362873417 17.99970023317816 0  7.001479353577278 17.99980443987465 0  8.000731575185652 17.99990350691428 0  9 18 0  -9 20 0  -8.000631597294459 19.99996063977945 0  -7.001281749828062 19.99992078911273 0  -6.001969719770028 19.99988001634232 0  -5.002716188051861 19.99983800901774 0  -4.002750856089629 19.99984758929507 0  -3.002714376011774 19.9998566524723 0  -2.001651044987641 19.9998561663564 0  -1.000640033920477 19.99985817649611 0  0.0003460300396236634 19.99986297697351 0  1.001333576169928 19.99987067986839 0  2.002349057231752 19.9998812226352 0  3.00341992486248 19.99989435197958 0  4.003457723163352 19.99981567469516 0  5.003421632588167 19.99973715448474 0  6.002496209306517 19.99980618798557 0  7.001631530286669 19.9998724303545 0  8.000806128470845 19.99993671768092 0  8.999999999969452 19.99999999999719 0  -9 22 0  -8.000596927558309 21.99999569242797 0  -7.001212034190158 21.9999921677106 0  -6.00186407789514 21.99999027644826 0  -5.002572973648835 21.99999100620638 0  -4.002606698728115 21.99984384921922 0  -3.002571179990531 21.99969618165426 0  -2.001536334874241 21.99970735878583 0  -1.000551925893101 21.99971584181625 0  0.0004088673465005374 21.99972201935102 0  1.001372107531864 21.99972603377051 0  2.002363901195243 21.99972778653697 0  3.003411202893389 21.99972693413388 0  4.003448304757796 21.99981329856294 0  5.003411465033225 21.99989969301117 0  6.002488544964613 21.99992330546646 0  7.001626273894773 21.99994823767785 0  8.000803430358044 21.9999739420816 0  9 22 0  -9 24 0  -8.000489423390441 24.00002761500966 0  -7.000994320852235 24.00005701471022 0  -6.00153061156372 24.00009005517115 0  -5.002115089098795 24.00012873706971 0  -4.002143702914249 23.99983912652341 0  -3.002113547848123 23.99954906114164 0  -2.001220384883214 23.99956930595729 0  -1.000369583898798 23.99958270958959 0  0.0004619375921824885 23.99958969544152 0  1.001296698074027 23.99959041514768 0  2.002157269903877 23.99958475026296 0  3.003066897482651 23.99957231079131 0  4.003098829413068 23.99981316261442 0  5.00306578698446 24.0000539756622 0  6.002237779205445 24.00003513792522 0  7.001463004823876 24.00002095132484 0  8.000722941213875 24.00000974755487 0  9 24 0  -9 26 0  -8.000319883985643 26.00005240278055 0  -7.000650768453523 26.00010730321182 0  -6.00100395816683 26.00016727265734 0  -5.001391343384419 26.00023503194608 0  -4.001411677215119 25.99983373742634 0  -3.001390244494118 25.9994320545361 0  -2.000735486481353 25.99945856955551 0  -1.000110346500405 25.99947520083149 0  0.0005020762482307632 25.99948238897832 0  1.001118317700087 25.99948028764437 0  2.001754970907112 25.9994687642528 0  3.002429116341912 25.99944739972695 0  4.002452454884182 25.99981481180232 0  5.002426724809242 26.00018211431006 0  6.001773589918647 26.00012836133238 0  7.00116059674926 26.00008173133838 0  8.000573824880526 26.00003972734868 0  9 26 0  -9 28 0  -8.000106176469593 28.00006720425782 0  -7.000217694341259 28.00013732060715 0  -6.000340053695292 28.0002133367357 0  -5.000479040975334 28.00029839225642 0  -4.00048896789197 27.99982807262191 0  -3.000478513722003 27.99935744843238 0  -2.000132603669341 27.99938731567649 0  -0.9998004610277857 27.99940541282902 0  0.000526963294045091 27.99941218908276 0  1.000858554004562 27.99940779659659 0  2.001203256260568 27.9993920910953 0  3.00157030092834 27.9993646314795 0  4.001582718928113 27.99981783804836 0  5.00156679910333 28.0002708803664 0  6.001148343290038 28.0001930910525 0  7.000752998381253 28.00012400784807 0  8.000372
[...]
<PointData  Vectors="f_44-0"> 
<DataArray  type="Float64"  Name="f_44-0"  NumberOfComponents="3" format="ascii">0.0000000000000000e+00 0.0000000000000000e+00 0.0000000000000000e+00  5.8618874794480410e-07 -1.2445097783225926e+01 0.0000000000000000e+00  5.4627804511320801e-07 -1.2923781813913811e+01 0.0000000000000000e+00  6.5638460664856554e-07 -1.2329746626491138e+01 0.0000000000000000e+00  0.0000000000000000e+00 0.0000000000000000e+00 0.0000000000000000e+00  0.0000000000000000e+00 0.0000000000000000e+00 0.0000000000000000e+00  0.0000000000000000e+00 0.0000000000000000e+00 0.0000000000000000e+00  0.0000000000000000e+00 0.0000000000000000e+00 0.0000000000000000e+00  0.0000000000000000e+00 0.0000000000000000e+00 0.0000000000000000e+00  0.0000000000000000e+00 0.0000000000000000e+00 0.0000000000000000e+00  0.0000000000000000e+00 0.0000000000000000e+00 0.0000000000000000e+00  0.0000000000000000e+00 0.0000000000000000e+00 0.0000000000000000e+00  0.0000000000000000e+00 0.0000000000000000e+00 0.0000000000000000e+00  0.0000000000000000e+00 0.0000000000000000e+00 0.0000000000000000e+00  0.0000000000000000e+00 0.0000000000000000e+00 0.0000000000000000e+00  5.9666425325982796e-07 -1.2440576934022459e+01 0.0000000000000000e+00  5.5075927137550923e-07 -1.2921254163065303e+01 0.0000000000000000e+00  6.6068426576541356e-07 -1.2328064388067839e+01 0.0000000000000000e+00  0.0000000000000000e+00 0.0000000000000000e+00 0.0000000000000000e+00  0.0000000000000000e+00 0.0000000000000000e+00 0.0000000000000000e+00  -5.2017331546051655e-02 -1.2387120917779864e+01 0.0000000000000000e+00  -1.9931772634981498e-02 -1.2936130627643276e+01 0.0000000000000000e+00  -1.4341904047313935e-02 -1.2377271450036575e+01 0.0000000000000000e+00  1.0953920163909883e-03 2.2039412350074756e-04 0.0000000000000000e+00  9.3338367053030704e-04 -3.8169176973242837e-05 0.0000000000000000e+00  4.6663446310738231e-04 5.3497448378893877e-06 0.0000000000000000e+00  2.8825164719407622e-04 1.4334634710467744e-04 0.0000000000000000e+00  1.7639976635314925e-04 1.9491060242726897e-04 0.0000000000000000e+00  1.3598151807674814e-04 1.2452778832477927e-04 0.0000000000000000e+00  9.2847757360240956e-05 -4.6673859210527046e-06 0.0000000000000000e+00  1.8929428313273338e-05 -1.3454792183218976e-04 0.0000000000000000e+00  -1.7276310546558401e-04 -3.5452991448909401e-04 0.0000000000000000e+00  -5.1165885909456752e-04 -3.6427968720533649e-04 0.0000000000000000e+00  -1.0344754946364158e-03 -8.7482902250338884e-04 0.0000000000000000e+00  -5.3617508467183043e-02 -1.2386458131029654e+01 0.0000000000000000e+00  -2.0984858262290178e-02 -1.2936157171894669e+01 0.0000000000000000e+00  -1.6057561387128768e-02 -1.2376963379721158e+01 0.0000000000000000e+00  0.0000000000000000e+00 0.0000000000000000e+00 0.0000000000000000e+00  0.0000000000000000e+00 0.0000000000000000e+00 0.0000000000000000e+00  -1.5423483011850366e-02 -1.2381818544429493e+01 0.0000000000000000e+00  -3.5339513522961809e-02 -1.2929976240132005e+01 0.0000000000000000e+00  -2.2261628598842387e-02 -1.2379874721162636e+01 0.0000000000000000e+00  -8.0177947768763239e-05 2.1078479700846548e-04 0.0000000000000000e+00  4.1794971191163176e-05 8.4816324244431232e-04 0.0000000000000000e+00  -7.3020123398314396e-05 1.1316070433602611e-03 0.0000000000000000e+00  -1.5802555908474541e-04 8.1861039775876689e-04 0.0000000000000000e+00  -2.2576193831345265e-04 2.0920626124382500e-04 0.0000000000000000e+00  -1.2968880800299368e-04 -2.1670470553885208e-04 0.0000000000000000e+00  6.3923035704211890e-05 -1.7984347262649700e-04 0.0000000000000000e+00  4.0305451909782399e-04 -1.6393816269040081e-04 0.0000000000000000e+00  4.0073086611660229e-04 -8.9043359867777512e-05 0.0000000000000000e+00  8.6179565737847902e-05 4.9839346649014347e-04 0.0000000000000000e+00  -3.4239548793090169e-04 9.9809936338538896e-04 0.0000000000000000e+00  -1.6444282983886959e-02 -1.2376690449806302e+01 0.0000000000000000e+00  -3.6189485103599095e-02 -1.2923349012258484e+01 0.0000000000000000e+00  -2.3864878365953638e-02 -1.2372611343991885e+01 0.0000000000000000e+00  0.0000000000000000e+00 0.0000000000000000e+00 0.0000000000000000e+00  0.0000000000000000e+00 0.0000000000000000e+00 0.0000000000000000e+00  -9.6128096675863280e-04 -1.2375438850826534e+01 0.0000000000000000e+00  -1.0140757413270769e-02 -1.2910511568700763e+01 0.0000000000000000e+00  -1.4184192935032040e-02 -1.2356771009686414e+01 0.0000000000000000e+00  -7.1713221354958773e-04 2.6825613798591090e-03 0.0000000000000000e+00  -8.3797679369490303e-04 3.1914834087889599e-03 0.0000000000000000e+00  -1.0756832660116910e-03 2.0988193264606719e-03 0.0000000000000000e+00  -1.2716831075495548e-03 -2.6399812120876318e-04 0.0000000000000000e+00  -6.8207811342427824e-04 -1.4353879245018798e-03 0.0000000000000000e+00  3.2570045356946119e-05 -1.0509021895187798e-03 0.0000000000000000e+00  6.2937570957248903e-04 -6.4182531065668728e-04 0.0000000000000000e+00  7.4434518410574529e-04 -1.6245019638944243e-04 0.0000000000000000e+00  1.0127451349561339e-03 7.0167172485894409e-04 0.0000000000000000e+00  1.1259272727562487e-03 6.1720460442516573e-04 0.0000000000000000e+00  7.0707814428279576e-05 8.2015749827152944e-05 0.0000000000000000e+00  -2.1606865296190836e-03 -1.2370883604430915e+01 0.0000000000000000e+00  -1.6211536463580183e-02 -1.2912135769197995e+01 0.0000000000000000e+00  -2.1937845702967345e-02 -1.2364629933067196e+01 0.0000000000000000e+00  0.0000000000000000e+00 0.0000000000000000e+00 0.0000000000000000e+00  0.0000000000000000e+00 0.0000000000000000e+00 0.0000000000000000e+00  2.1862225768947163e-03 -1.2382847562350449e+01 0.0000000000000000e+00  -1.2815329040396640e-03 -1.2920409342999527e+01 0.0000000000000000e+00  -1.0065249758982609e-02 -1.2374373676818090e+01 0.0000000000000000e+00  -3.2676774091337504e-03 3.6980444803290141e-03 0.0000000000000000e+00  -4.9677205842800273e-03 3.4363198303521206e-03 0.0000000000000000e+00  -1.8099965781237745e-03 -1.2478519796562484e-03 0.0000000000000000e+00  -1.1993428345449240e-03 -3.8897146917694805e-03 0.0000000000000000e+00  4.6414404392198253e-04 -2.5758669931162164e-03 0.0000000000000000e+00  7.4954047631288208e-04 -2.3809447167810320e-03 0.0000000000000000e+00  1.5817042474667892e-03 -4.1886385911498883e-03 0.0000000000000000e+00  1.5350162874805994e-03 -9.9321800000538017e-04 0.0000000000000000e+00  6.5508015848144401e-03 -1.8222993204997462e-03 0.0000000000000000e+00  7.2295652353619125e-03 -3.2451696103426501e-03 0.0000000000000000e+00  3.5918837947326926e-03 -7.8113733514552917e-04 0.0000000000000000e+00  -1.0780618774087504e-03 -1.2374159042547792e+01 0.0000000000000000e+00  -2.0576591434182698e-03 -1.2908478142943691e+01 0.0000000000000000e+00  -1.1603554841119114e-02 -1.2360933616343781e+01 0.0000000000000000e+00  0.0000000000000000e+00 0.0000000000000000e+00 0.0000000000000000e+00  0.0000000000000000e+00 0.0000000000000000e+00 0.0000000000000000e+00  3.3186657473280264e-03 -1.2383075515358048e+01 0.0000000000000000e+00  6.0246976688422176e-03 -1.2914507340106582e+01 0.0000000000000000e+00  6.1128460384855011e-03 -1.2358662408682861e+01 0.0000000000000000e+00  -1.1528618555621255e-02 1.6405394457655847e-02 0.0000000000000000e+00  -9.6251146592664701e-03 8.5738490205240249e-03 0.0000000000000000e+00  -3.4517279300858160e-03 1.8387051357577351e-03 0.0000000000000000e+00  3.3102435599876865e-03 -5.7606567957884623e-03 0.0000000000000000e+00  1.8911899596546768e-03 -1.9550513200555248e-03 0.0000000000000000e+00  1.7528761605867037e-03 -1.2631089874395878e-03 0.0000000000000000e+00  1.5748872231958878e-03 -1.4558436098185434e-03 0.0000000000000000e+00  -1.9885986570415849e-04 -1.6506957594427743e-03 0.0000000000000000e+00  8.8875810174709694e-03 -4.8810437020130560e-03 0.0000000000000000e+00  1.1916559430024768e-02 -3.3340722418114437e-03 0.0000000000000000e+00  1.0309458672860617e-02 1.6403859518054160e-03 0.0000000000000000e+00  -3.4435827603050816e-03 -1.2367077147043652e+01 0.0000000000000000e+00  -2.4337688695415874e-03 -1.2905888953368452e+01 0.0000000000000000e+00  -5.0950815834146868e-03 -1.2361550701076316e+01 0.0000000000000000e+00  0.0000000000000000e+00 0.0000000000000000e+00 0.0000000000000000e+00  0.0000000000000000e+00 0.0000000000000000e+00 0.0000000000000000e+00  6.9175053664674527e-03 -1.2391725810022708e+01 0.0000000000000000e+00  1.6294571122806814e-02 -1.2921055406656066e+01 0.0000000000000000e+00  2.1052340052426208e-02 -1.2365995723190009e+01 0.0000000000000000e+00  1.5616013693995987e-02 1.9556980516767904e-02 0.0000000000000000e+00  1.1653074176325910e-02 9.9890481638916333e-03 0.0000000000000000e+00  8.2278938444643526e-03 4.2852970267122942e-03 0.0000000000000000e+00  1.7635262157743073e-03 7.1518634646282992e-04 0.0000000000000000e+00  1.5334960939968544e-04 2.9837159108771572e-03 0.0000000000000000e+00  -1.3624505045204374e-03 5.4845217482144427e-03 0.0000000000000000e+00  -4.3057210485912024e-03 2.9014889675468706e-03 0.0000000000000000e+00  -1.3100196545686747e-02 -6.6110789778209295e-03 0.0000000000000000e+00  -1.8264960656733348e-02 -1.2425992690501715e-02 0.0000000000000000e+00  -1.2934674975979221e-02 -2.1140621591122198e-04 0.0000000000000000e+00  -9.8543836582510192e-03 1.4423499138546958e-02 0.0000000000000000e+00  -8.5587811283436184e-03 -1.2370282016184722e+01 0.0000000000000000e+00  -8.3847984200523754e-03 -1.2916170616324894e+01 0.0000000000000000e+00  -5.0455054838884072e-03 -1.2372260443091211e+01 0.0000000000000000e+00  0.0000000000000000e+00 0.0000000000000000e+00 0.0000000000000000e+00  0.0000000000000000e+00 0.0000000000000000e+00 0.0000000000000000e+00  1.1826374762761719e-02 -1.2413092430043477e+01 0.0000000000000000e+00  2.8390695322112983e-02 -1.2941141986670999e+01 0.0000000000000000e+00  3.9714281213924209e-02 -1.2387448760302318e+01 0.0000000000000000e+00  5.1355863658352811e-02 1.6915426053299817e-02 0.0000000000000000e+00  4.9567533566978919e-02 4.2061929404019318e-03 0.0000000000000000e+00  4.8582740717166541e-02 -1.1064412272467484e-02 0.0000000000000000e+00  4.1376181223917508e-02 1.8910284700836343e-02 0.0000000000000000e+00  1.9748776586406142e-02 2.5202178817648205e-02 0.0000000000000000e+00  1.0802823315831090e-03 2.8134342065945773e-02 0.0000000000000000e+00  -1.5756402982884121e-02 2.6620236542187654e-02 0.0000000000000000e+00  -3.1538601539984126e-02 2.1705945557312260e-02 0.0000000000000000e+00  -5.1539581329512051e-02 -8.0399379762874420e-03 0.0000000000000000e+00  -4.9682018110603576e-02 4.8364041869237932e-03 0.0000000000000000e+00  -4.8656563343178916e-02 1.6615914439853607e-02 0.0000000000000000e+00  -3.3604419476381146e-02 -1.2397620309958540e+01 0.0000000000000000e+00  -1.4551394101826431e-02 -1.2940324737040333e+01 0.0000000000000000e+00  -7.7882295501056475e-03 -1.2397862504311439e+01 0.0000000000000000e+00  0.0000000000000000e+00 0.0000000000000000e+00 0.0000000000000000e+00  0.0000000000000000e+00 0.0000000000000000e+00 0.0000000000000000e+00  1.6747514552662157e-02 -1.2448201335572021e+01 0.0000000000000000e+00  3.9896381888947792e-02 -1.2975699546558717e+01 0.0000000000000000e+00  5.7203877891517298e-02 -1.2425785918389753e+01 0.0000000000000000e+00  8.1403655083170448e-02 1.1407985703462291e-02 0.0000000000000000e+00  8.0629555654886234e-02 6.0497528732134391e-04 0.0000000000000000e+00  7.8546804610844151e-02 -9.9606524929924910e-03 0.0000000000000000e+00  5.5262537808809159e-02 7.0958865568156268e-02 0.0000000000000000e+00  2.7116285858513944e-02 6.9803226588405987e-02 0.0000000000000000e+00  1.1599849828941961e-03 7.0734546547405061e-02 0.0000000000000000e+00  -2.4149723327209729e-02 6.9430323083069817e-02 0.0000000000000000e+00  -5.3037002956637561e-02 6.6744970446867863e-02 0.0000000000000000e+00  -8.2562466033305706e-02 -2.5259152215500410e-03 0.0000000000000000e+00  -8.1850741080824310e-02 7.9756771163504193e-03 0.0000000000000000e+00  -7.9672550061208783e-02 1.9117443720021738e-02 0.0000000000000000e+00  -5.7770721052273467e-02 -1.2442390890618945e+01 0.0000000000000000e+00  -2.6459683196691557e-02 -1.2979510071161977e+01 0.0000000000000000e+00  -1.0296464336446610e-02 -1.2436887354464616e+01 0.0000000000000000e+00  0.0000000000000000e+00 0.0000000000000000e+00 0.0000000000000000e+00  0.0000000000000000e+00 0.0000000000000000e+00 0.0000000000000000e+00  2.0438350175626264e-02 -1.2494286572960764e+01 0.0000000000000000e+00  4.8228376174583303e-02 -1.3021471862614508e+01 0.0000000000000000e+00  6.9298403387177882e-02 -1.2476320218201279e+01 0.0000000000000000e+00  1.0228730583584404e-01 5.4018034643880698e-03 0.0000000000000000e+00  1.0254120955259963e-01 -1.0682480489842968e-03 0.0000000000000000e+00  1.0100909908641033e-01 -7.8128418278746795e-03 0.0000000000000000e+00  6.8598135581552769e-02 1.2748178329603185e-01 0.0000000000000000e+00  3.2972234411750977e-02 1.2563621166939606e-01 0.0000000000000000e+00  6.8444417873052537e-04 1.2667452254147957e-01 0.0000000000000000e+00  -3.1258750243012313e-02 1.2640825370749231e-01 0.0000000000000000e+00  -6.8002165229431741e-02 1.2688787452791328e-01 0.0000000000000000e+00  -1.0374911801164312e-01 3.9203172249300299e-03 0.0000000000000000e+00  -1.0386917031356636e-01 1.0373986666506792e-02 0.0000000000000000e+00  -1.0215347104859329e-01 1.7040973540372869e-02 0.0000000000000000e+00  -7.5470622759580802e-02 -1.2497886460592577e+01 0.0000000000000000e+00  -3.7957195126453347e-02 -1.3027892014925428e+01 0.0000000000000000e+00  -1.4056351557699855e-02 -1.2484831351073300e+01 0.0000000000000000e+00  0.0000000000000000e+00 0.0000000000000000e+00 0.0000000000000000e+00  0.0000000000000000e+00 0.0000000000000000e+00 0.0000000000000000e+00  2.2152649970479620e-02 -1.2546370343720952e+01 0.0000000000000000e+00  5.1885010050582971e-02 -1.3073225334630644e+01 0.0000000000000000e+00  7.4016879002654176e-02 -1.2533065841262468e+01 0.0000000000000000e+00  1.1144767078505342e-01 -4.6228269706449380e-04 0.0000000000000000e+00  1.1241515000306931e-01 -1.8298747177400787e-03 0.0000000000000000e+00  1.1118274364781627e-01 -3.4144514981881181e-03 0.0000000000000000e+00  7.3254373913800991e-02 1.9726055919024080e-01 0.0000000000000000e+00  3.5122729402480332e-02 1.9118685302824673e-01 0.0000000000000000e+00  2.6347421545960845e-05 1.9117544448362320e-01 0.0000000000000000e+00  -3.4754199245907398e-02 1.9203101823723462e-01 0.0000000000000000e+00  -7.5175886630586913e-02 1.9663508684585473e-01 0.0000000000000000e+00  -1.1298481497892154e-01 1.0164294605969444e-02 0.0000000000000000e+00  -1.1384236291390906e-01 1.1381698602150771e-02 0.0000000000000000e+00  -1.1251903586598395e-01 1.2794845043597682e-02 0.0000000000000000e+00  -8.3793123072781153e-02 -1.2558550538375474e+01 0.0000000000000000e+00  -4.5299988920031793e-02 -1.3081384944653392e+01 0.0000000000000000e+00  -1.7623804046582363e-02 -1.2537183988942711e+01 0.0000000000000000e+00  -2.7183784265170730e-11 -1.3890313972417728e-10 0.0000000000000000e+00  0.0000000000000000e+00 0.0000000000000000e+00 0.0000000000000000e+00  2.1594722924910645e-02 -1.2598619222050669e+01 0.0000000000000000e+00  5.0322193386822291e-02 -1.3125118995577843e+01 0.0000000000000000e+00  7.0727216210842103e-02 -1.2589659246291923e+01 0.0000000000000000e+00  1.0801025567325923e-01 -5.6050648919190298e-03 0.0000000000000000e+00  1.0941367090121436e-01 -1.6254175290298133e-03 0.0000000000000000e+00  1.0865187085421076e-01 2.1907218905841048e-03 0.0000000000000000e+00  7.0062502310100652e-02 2.6840701581221182e-01 0.0000000000000000e+00  3.3554435734025889e-02 2.5842757742374162e-01 0.0000000000000000e+00  -4.9157666707025024e-04 2.5742973487946580e-01 0.0000000000000000e+00  -3.4305692648818310e-02 2.5940511235711317e-01 0.0000000000000000e+00  -7.4064664346905576e-02 2.6823340001997226e-01 0.0000000000000000e+00  -1.0952647202929315e-01 1.5557888727535437e-02 0.0000000000000000e+00  -1.1082181242103542e-01 1.1412521400915122e-02 0.0000000000000000e+00  -1.0995528383754904e-01 7.4468537594655753e-03 0.0000000000000000e+00  -8.1652126474293388e-02 -1.2617319512784899e+01 0.0000000000000000e+00  -4.6542239816919198e-02 -1.3133973241040248e+01 0.0000000000000000e+00  -1.9337815296031752e-02 -1.2588823086238898e+01 0.0000000000000000e+00  0.0000000000000000e+00 0.0000000000000000e+00 0.0000000000000000e+00  0.0000000000000000e+00 0.0000000000000000e+00 0.0000000000000000e+00  1.8814655391636747e-02 -1.2645206748389972e+01 0.0000000000000000e+00  4.3735832525722614e-02 -1.3171393541446481e+01 0.0000000000000000e+00  5.9868162050342115e-02 -1.2639866865115215e+01 0.0000000000000000e+00  9.2650519106217008e-02 -9.4982053899703035e-03 0.0000000000000000e+00  9.4267823727703814e-02 -6.4293705867999012e-04 0.0000000000000000e+00  9.4012310611891498e-02 8.0868431451130221e-03 0.0000000000000000e+00  5.9261232890548972e-02 3.3392334924441625e-01 0.0000000000000000e+00  2.8467372759508117e-02 3.2027176281176684e-01 0.0000000000000000e+00  -8.8242599640660072e-04 3.1825392305857531e-01 0.0000000000000000e+00  -3.0030587317389966e-02 3.2115291469411988e-01 0.0000000000000000e+00  -6.4868981583398655e-02 3.3393778607253910e-01 0.0000000000000000e+00  -9.4085133767295839e-02 1.9633110804274559e-02 0.0000000000000000e+00  -9.5587193842551446e-02 1.0622874475294303e-02 0.0000000000000000e+00  -9.5236134750380466e-02 1.7483451278398848e-03 0.0000000000000000e+00  -6.9815369790024367e-02 -1.2667926627442531e+01 0.0000000000000000e+00  -4.1417722193328281e-02 -1.3179766095715113e+01 0.0000000000000000e+00  -1.8395902196367782e-02 -1.2634183832847176e+01 0.0000000000000000e+00  0.0000000000000000e+00 0.0000000000000000e+00 0.0000000000000000e+00  0.0000000000000000e+00 0.0000000000000000e+00 0.0000000000000000e+00  1.4135911864546458e-02 -1.2681010712481115e+01 0.0000000000000000e+00  3.2912951955576669e-02 -1.3207001734071927e+01 0.0000000000000000e+00  4.2752536835265018e-02 -1.2678253409738025e+01 0.0000000000000000e+00  6.7275213251356353e-02 -1.1794610678477747e-02 0.0000000000000000e+00  6.8905059261488086e-02 9.3015040681211061e-04 0.0000000000000000e+00  6.9164457397941415e-02 1.3571141172216366e-02 0.0000000000000000e+00  4.2090426427547595e-02 3.8659433581377339e-01 0.0000000000000000e+00  2.0377038767439768e-02 3.7002305194361990e-01 0.0000000000000000e+00  -1.1463305589814354e-03 3.6709749483897797e-01 0.0000000000000000e+00  -2.2474805838977551e-02 3.7065374647309651e-01 0.0000000000000000e+00  -4.8784469935510638e-02 3.8671149800871735e-01 0.0000000000000000e+00  -6.8606330082101694e-02 2.2050451579219407e-02 0.0000000000000000e+00  -7.0115247595116281e-02 9.2010309120454294e-03 0.0000000000000000e+00  -7.0281661697873907e-02 -3.5525234151279070e-03 0.0000000000000000e+00  -5.0026860014287217e-02 -1.2705085139426819e+01 0.0000000000000000e+00  -3.0756148099400756e-02 -1.3213864339272911e+01 0.0000000000000000e+00  -1.4772514438819266e-02 -1.2668337981909779e+01 0.0000000000000000e+00  0.0000000000000000e+00 0.0000000000000000e+00 0.0000000000000000e+00  0.0000000000000000e+00 0.0000000000000000e+00 0.0000000000000000e+00  8.0869782567604704e-03 -1.2702166401434351e+01 0.0000000000000000e+00  1.9076032499482917e-02 -1.3228131560094265e+01 0.0000000000000000e+00  2.1327076221589473e-02 -1.2700737818504304e+01 0.0000000000000000e+00  3.4717265404705606e-02 -1.2304371513493534e-02 0.0000000000000000e+00  3.6188334180704759e-02 2.9010286094654659e-03 0.0000000000000000e+00  3.6931571518654289e-02 1.8064254147306842e-02 0.0000000000000000e+00  2.0405219735993400e-02 4.2074532215011706e-01 0.0000000000000000e+00  1.0142939504007565e-02 4.0233589767393974e-01 0.0000000000000000e+00  -1.2928505988863365e-03 3.9872963446751275e-01 0.0000000000000000e+00  -1.2518862471511027e-02 4.0261905741932774e-01 0.0000000000000000e+00  -2.7645954137006538e-02 4.2092302280030736e-01 0.0000000000000000e+00  -3.5953002976796038e-02 2.2625336466495630e-02 0.0000000000000000e+00  -3.7301038406471740e-02 7.3424742848994745e-03 0.0000000000000000e+00  -3.7955470910709083e-02 -7.8