<?xml version="1.0"?>
<VTKFile type="UnstructuredGrid"  version="0.1"  >
<UnstructuredGrid>
<Piece  NumberOfPoints="589" NumberOfCells="1080">
<Points>
<DataArray  type="Float64"  NumberOfComponents="3"  format="ascii">-9 0 0  -8 0 0  -7 0 0  -6 0 0  -5 0 0  -4 0 0  -3 0 0  -2 0 0  -1 0 0  0 0 0  1 0 0  2 0 0  3 0 0  4 0 0  5 0 0  6 0 0  7 0 0  8 0 0  9 0 0  -9 2 0  -8.000005926851051 1.99999111087179 0  -7.000012413402394 1.999983324087701 0  -6.000020800932255 1.999977535760504 0  -5.000034176922599 1.999974142617814 0  -4.000020199184589 1.99998067860596 0  -3.000005860509884 1.999986905807007 0  -1.999998891935689 1.999992764654487 0  -0.9999977761093527 1.999997400988207 0  -3.225334248219269e-07 1.99999945144903 0  0.9999968483387295 1.999998086774386 0  1.999997011958478 1.999993654890368 0  3.000002356779932 1.999988240889439 0  4.000013532306093 1.999982518682783 0  5.000029703698465 1.999980400128085 0  6.000017845026329 1.999981077364317 0  7.000010595446009 1.999985348461006 0  8.000005059614764 1.999992053807458 0  9 2 0  -9 4 0  -8.000009614794173 3.99997781281574 0  -7.00001722291088 3.999958654682688 0  -6.000021647976377 3.999945490965486 0  -5.000023124872675 3.999941144885311 0  -4.000002758954614 3.999944283851761 0  -2.999989126981024 3.999961889121717 0  -1.999985619479307 3.999984778917633 0  -0.9999908973540309 4.000003206945954 0  -9.560184569196316e-07 4.000010678823085 0  0.9999887608618131 4.000004998815714 0  1.999982716107649 3.999989540300989 0  2.999985369760025 3.999968633982503 0  3.999998080784525 3.999947703454688 0  5.00001762158233 3.999941015380938 0  6.000017253608237 3.999947779569897 0  7.000014335792759 3.999960960386797 0  8.000008214189233 3.999979144713092 0  9 4 0  -9 6 0  -8.000021328871835 5.999952400760842 0  -7.000034764570858 5.999910009655767 0  -6.00003428769547 5.999878177590101 0  -5.000018179657904 5.999862024383336 0  -3.999978395683108 5.999888204423637 0  -2.999960358656428 5.999942718683553 0  -1.999967647396592 5.999999828202252 0  -0.999985615151586 6.000031554055005 0  -3.759638455326526e-06 6.000037961538519 0  0.9999799518212069 6.000027806657225 0  1.99996752913889 5.999999637013766 0  2.999962805175329 5.999952032706089 0  3.999972054101003 5.99990274654563 0  5.000005744110347 5.999878528677048 0  6.000026861506569 5.999888817132959 0  7.000030890698137 5.99991656040696 0  8.000019738249144 5.999955553794194 0  9 6 0  -9 8 0  -8.000064609167218 7.99990616636357 0  -7.000107952622788 7.999819139432537 0  -6.000109449783508 7.999748159588941 0  -5.000051539851164 7.999708444438069 0  -3.999974375559401 7.999829004396047 0  -2.999988884976576 7.999970615392418 0  -2.000018126566511 8.000039504846741 0  -1.000020795444565 8.000047188843089 0  -3.683995729329855e-06 8.000049400610294 0  1.000009137940531 8.000056325028511 0  2.000003849164007 8.000027836802523 0  2.99997042497991 7.999979359582229 0  3.999959056488926 7.99985890688415 0  5.000034376617396 7.999722953082145 0  6.000104814410617 7.999760050393261 0  7.000108163256136 7.999827171382601 0  8.000065597912762 7.999910160190186 0  9 8 0  -9 10 0  -8.000192900595966 9.99983274675883 0  -7.000348470626298 9.999664145267705 0  -6.000422187739969 9.999493189105168 0  -5.000352083155849 9.999319678623667 0  -4.00022948755548 9.999709507388955 0  -3.0002500911107 10.00004460726722 0  -2.000200844210845 9.999986361684019 0  -1.000093380823091 9.999967674845179 0  -1.44104648702986e-05 9.999963119695508 0  1.000063826807695 9.999963521478525 0  2.000167914749194 9.999961623915333 0  3.000259528788915 10.00008162016674 0  4.000247988350283 9.999766526031253 0  5.000386300712384 9.999350625982247 0  6.000451013435706 9.999511273330841 0  7.000369023528752 9.999674358141474 0  8.000203542828546 9.999837392326874 0  9 10 0  -9 12 0  -8.000470274018866 11.99976480932603 0  -7.000916008009419 11.99951872034722 0  -6.001309454485169 11.99924869838528 0  -5.00161620595367 11.99893656121389 0  -4.001553207704854 11.99964851015019 0  -3.0016103474219 12.00035342563359 0  -2.001109201501222 12.00026769939921 0  -1.000550742435315 12.00022095593622 0  2.957607633593652e-05 12.00021124438107 0  1.000615936779164 12.00023999004262 0  2.001195054150624 12.00031567510167 0  3.001740756755897 12.0004595735694 0  4.001680797165831 11.99970285618588 0  5.001720669307465 11.99893992584973 0  6.001383483942226 11.99925294039265 0  7.000963577587499 11.99952186643914 0  8.000493571756502 11.99976640419472 0  9 12 0  -9 14 0  -8.000845310491302 13.99974056624909 0  -7.001691899556355 13.99946920243131 0  -6.002542139567527 13.99917292425751 0  -5.003401261651296 13.99883667987168 0  -4.003409790486601 13.99967048764126 0  -3.003415396792085 14.00051483543294 0  -2.002247747933351 14.00039329154547 0  -1.001095955822053 14.00032627351717 0  4.950367385406322e-05 14.00030569042915 0  1.001197737897285 14.0003288848007 0  2.002357222050728 14.00039713681162 0  3.003534617784274 14.00051417043363 0  4.003543942821664 13.99967373849593 0  5.003549090120448 13.99883854540125 0  6.002645655681803 13.99917134808372 0  7.001757837489526 13.99946715893803 0  8.000877433417012 13.9997393102589 0  9 14 0  -9 16 0  -8.001214553150147 15.99976411105833 0  -7.002452068223437 15.9995194848709 0  -6.003737495243322 15.99925722983247 0  -5.005099855939666 15.99896829048718 0  -4.005148010444879 15.9996818872108 0  -3.005102755923829 16.00039172645727 0  -2.003324620915583 16.00030132380808 0  -1.001616610776957 16.0002462889389 0  5.83549543310494e-05 16.00022542135556 0  1.001735345373534 16.0002379372212 0  2.003449452729289 16.00028385895246 0  3.005238015436181 16.00036383830119 0  4.005289240650115 15.99965235688071 0  5.005244571307128 15.99894032372317 0  6.003843361597171 15.99923798651199 0  7.00252122940295 15.99950727381097 0  8.0012486904747 15.9997581595184 0  9 16 0  -9 18 0  -8.00149122075722 17.99982262284684 0  -7.003019309527994 17.99964035405081 0  -6.004623050469745 17.99944838755458 0  -5.006345051593232 17.99924211280558 0  -4.006418086020606 17.99968490884965 0  -3.006347968503636 18.00012713348921 0  -2.004123235628929 18.00006833530728 0  -1.002006142939506 18.00003009914143 0  5.906039924472901e-05 18.00001207667292 0  1.002125429519509 18.00001381387522 0  2.00424594532507 18.00003477911874 0  3.006476101045685 18.00007425885972 0  4.006550499547073 17.99963629088849 0  5.006479699903492 17.99919960937718 0  6.004722470364976 17.99941829602978 0  7.003084813393707 17.99962109896737 0  8.001523735078036 17.9998132274727 0  9 18 0  -9 20 0  -8.001619750376399 19.99990069035533 0  -7.003282625326294 19.99980003175373 0  -6.005033399439044 19.99969681774113 0  -5.006920149653475 19.99959012415711 0  -4.007003666203454 19.99968532710292 0  -3.006921449716534 19.99977991547822 0  -2.004493824120541 19.99975342958564 0  -1.002189324880479 19.99973339598473 0  5.504705505804079e-05 19.99972003319367 0  1.002300008663767 19.9997131068331 0  2.004606243774032 19.99971194527098 0  3.007036659858991 19.99971539995191 0  4.007120448061078 19.99962824377851 0  5.007037804698662 19.99954198574403 0  6.005120934820908 19.99966218854201 0  7.00334063546719 19.99977764690678 0  8.001648649259181 19.99988970787968 0  8.999999999995479 19.99999999999281 0  -9 22 0  -8.001575165805756 21.9999841411794 0  -7.003193034358427 21.99996992845856 0  -6.004897651928867 21.99995916911002 0  -5.006735743622065 21.999953996093 0  -4.006817606704937 21.99968230054608 0  -3.006736526289552 21.99940993828097 0  -2.00437447546264 21.99941282658613 0  -1.002133209989776 21.99941013120625 0  4.866762680693491e-05 21.99940236527134 0  1.002230688963561 21.99938945241861 0  2.004472361590772 21.9993707377927 0  3.006835012451641 21.99934497694881 0  4.006915624732935 21.99962564379593 0  5.006833269354217 21.99990684878518 0  6.004970851170445 21.9999250521035 0  7.003241845146635 21.9999477719817 0  8.001599569969088 21.99997323917962 0  9 22 0  -9 24 0  -8.001359137687363 24.00006100817825 0  -7.002755108598371 24.000126011121 0  -6.004225781396193 24.00019917013959 0  -5.005811041396368 24.00028498855596 0  -4.005881656858806 23.99967615200719 0  -3.005812115048822 23.99906673082943 0  -2.003774477779494 23.99909446045569 0  -1.001840694614088 23.9991070559503 0  4.177074960189193e-05 23.99910519097132 0  1.001924035546673 23.99908890357915 0  2.003857196945247 23.99905759876443 0  3.005893732315436 23.99901004380054 0  4.005961166235687 23.99962717355237 0  5.005889074353915 24.00024463874897 0  6.004284941049457 24.00016983600102 0  7.002794835968313 24.0001068971195 0  8.001379081529258 24.00005158399753 0  9 24 0  -9 26 0  -8.000995056044228 26.00012190912336 0  -7.002016955094611 26.00024947712914 0  -6.003093266115309 26.00038853217617 0  -5.004252896520862 26.00054525095873 0  -4.004304961659412 25.99966740010612 0  -3.004254829992362 25.99878910619359 0  -2.002761463115669 25.99883640737788 0  -1.001343995765313 25.99886159781292 0  3.577809387132797e-05 25.99886547819951 0  1.001415097197896 25.99884818963074 0  2.0028311799876 25.99880921442919 0  3.004322172762905 25.99874737394731 0  4.004369018676718 25.99963157260969 0  5.004314766061281 26.00051594378068 0  6.003140748773079 26.00036716639758 0  7.002049109008134 26.00023552584302 0  8.001011276260497 26.000115021099 0  9 26 0  -9 28 0  -8.00052276714349 28.00016018940287 0  -7.001059630759607 28.00032700338359 0  -6.001625092403422 28.00050723828046 0  -5.002234306220337 28.00070803868449 0  -4.002262849135096 27.99965690331581 0  -3.002237342992743 27.99860554431557 0  -2.001447200445821 27.99866656068241 0  -1.000697586718529 27.99870113926859 0  3.170955721636715e-05 27.99871019544013 0  1.000760387315583 27.99869396989334 0  2.001508122973856 27.99865202966058 0  3.002295060726728 27.9985832668132 0  4.002316572367572 27.99963789583142 0  5.002285424218977 28.00069261148152 0  6.001664805260739 28.00049596811613 0  7.001086745408121 28.0003196324737 0  8.000536511267226 28.
[...]
<PointData  Vectors="f_44-0"> 
<DataArray  type="Float64"  Name="f_44-0"  NumberOfComponents="3" format="ascii">0.0000000000000000e+00 0.0000000000000000e+00 0.0000000000000000e+00  3.8847851072490648e-08 -2.8890488238193801e+00 0.0000000000000000e+00  1.2454538665889801e-07 -2.8547336448986931e+00 0.0000000000000000e+00  2.6018942835334090e-07 -2.5460003106263844e+00 0.0000000000000000e+00  0.0000000000000000e+00 0.0000000000000000e+00 0.0000000000000000e+00  0.0000000000000000e+00 0.0000000000000000e+00 0.0000000000000000e+00  0.0000000000000000e+00 0.0000000000000000e+00 0.0000000000000000e+00  0.0000000000000000e+00 0.0000000000000000e+00 0.0000000000000000e+00  0.0000000000000000e+00 0.0000000000000000e+00 0.0000000000000000e+00  0.0000000000000000e+00 0.0000000000000000e+00 0.0000000000000000e+00  0.0000000000000000e+00 0.0000000000000000e+00 0.0000000000000000e+00  0.0000000000000000e+00 0.0000000000000000e+00 0.0000000000000000e+00  0.0000000000000000e+00 0.0000000000000000e+00 0.0000000000000000e+00  0.0000000000000000e+00 0.0000000000000000e+00 0.0000000000000000e+00  0.0000000000000000e+00 0.0000000000000000e+00 0.0000000000000000e+00  4.0454541005464577e-08 -2.8988032958655663e+00 0.0000000000000000e+00  1.2574598406524527e-07 -2.8637185112254460e+00 0.0000000000000000e+00  2.5994667518428107e-07 -2.5527300256353991e+00 0.0000000000000000e+00  0.0000000000000000e+00 0.0000000000000000e+00 0.0000000000000000e+00  0.0000000000000000e+00 0.0000000000000000e+00 0.0000000000000000e+00  -1.6945401222892627e-03 -2.6728650484081498e+00 0.0000000000000000e+00  3.6372128517770533e-03 -2.8495757888265993e+00 0.0000000000000000e+00  2.0071409875117640e-02 -2.6818950637041121e+00 0.0000000000000000e+00  1.2022388718932093e-03 -4.3428928954762408e-04 0.0000000000000000e+00  1.3533103268497015e-03 -8.6884148342309959e-04 0.0000000000000000e+00  7.4930924043697901e-04 -5.0112397167723771e-04 0.0000000000000000e+00  5.7307667612178513e-04 8.7200922569265318e-05 0.0000000000000000e+00  3.2603438724518612e-04 4.1188037430464305e-04 0.0000000000000000e+00  1.1321358818093033e-04 3.4130560030278581e-04 0.0000000000000000e+00  -1.0564183139837773e-04 6.5819795371657343e-06 0.0000000000000000e+00  -2.6524426730965671e-04 -4.3377978895552815e-04 0.0000000000000000e+00  -4.8525052531302740e-04 -1.0992981044662951e-03 0.0000000000000000e+00  -7.9705645749774832e-04 -1.2613880121079084e-03 0.0000000000000000e+00  -1.3329163063539348e-03 -2.1156438056152962e-03 0.0000000000000000e+00  -1.7215832661950448e-03 -2.6811015190105922e+00 0.0000000000000000e+00  3.8948105255152197e-03 -2.8584724202198233e+00 0.0000000000000000e+00  2.0258631705133558e-02 -2.6903728672478047e+00 0.0000000000000000e+00  0.0000000000000000e+00 0.0000000000000000e+00 0.0000000000000000e+00  0.0000000000000000e+00 0.0000000000000000e+00 0.0000000000000000e+00  9.2869584342253810e-03 -2.6819542710087814e+00 0.0000000000000000e+00  -2.5449645704354903e-03 -2.8391522481279781e+00 0.0000000000000000e+00  9.2402175066673004e-03 -2.6840993180914299e+00 0.0000000000000000e+00  -1.2349594544301668e-03 -1.8434640902254135e-03 0.0000000000000000e+00  -9.6415906512585758e-05 -7.5886152361543207e-05 0.0000000000000000e+00  1.8386933876036866e-04 1.3636687449279166e-03 0.0000000000000000e+00  1.0720473779096859e-04 1.4991571233832555e-03 0.0000000000000000e+00  -2.8366304618227922e-04 6.9449993725094711e-04 0.0000000000000000e+00  -4.4371347043138182e-04 -6.4912540883731146e-05 0.0000000000000000e+00  -3.5707123183755315e-04 -1.9793817575092189e-04 0.0000000000000000e+00  2.4372511521598733e-04 -7.3697719741084515e-04 0.0000000000000000e+00  3.6390645441023253e-04 -1.3456020767783846e-03 0.0000000000000000e+00  1.2330263426013581e-04 -7.8174709777430391e-04 0.0000000000000000e+00  -1.9202177496046614e-04 -6.7660577246775796e-05 0.0000000000000000e+00  9.5790746521822595e-03 -2.6900108686182298e+00 0.0000000000000000e+00  -2.4364603144218250e-03 -2.8474024481564704e+00 0.0000000000000000e+00  8.9961598503447062e-03 -2.6922483871943710e+00 0.0000000000000000e+00  0.0000000000000000e+00 0.0000000000000000e+00 0.0000000000000000e+00  0.0000000000000000e+00 0.0000000000000000e+00 0.0000000000000000e+00  8.7159585240542837e-03 -2.6837278531142901e+00 0.0000000000000000e+00  -2.5045378229994557e-03 -2.8402476906515775e+00 0.0000000000000000e+00  8.8854020384445329e-03 -2.6834785544790938e+00 0.0000000000000000e+00  -2.6880074380889502e-03 1.3222142191091474e-03 0.0000000000000000e+00  -1.2970409171284443e-03 3.7130015289228387e-03 0.0000000000000000e+00  -1.1703934102352438e-03 3.1405945782685819e-03 0.0000000000000000e+00  -2.0214360073624654e-03 -6.3497259727691882e-04 0.0000000000000000e+00  -1.2711994326799012e-03 -2.3243175709574543e-03 0.0000000000000000e+00  -1.8186251083437496e-04 -1.1262179552142416e-03 0.0000000000000000e+00  6.5559691326510519e-04 -4.8661119635810623e-04 0.0000000000000000e+00  4.5206988635261797e-04 -3.7786061388489582e-04 0.0000000000000000e+00  9.1022904910950892e-04 -1.2908875149058354e-04 0.0000000000000000e+00  1.5681752369330318e-03 -2.2503383362030569e-03 0.0000000000000000e+00  3.7640034542168641e-04 -4.4235842825100027e-03 0.0000000000000000e+00  1.0739081755324269e-02 -2.6909450397962833e+00 0.0000000000000000e+00  -1.5167542513017827e-03 -2.8470670124317872e+00 0.0000000000000000e+00  8.7955768717719682e-03 -2.6899420269791037e+00 0.0000000000000000e+00  0.0000000000000000e+00 0.0000000000000000e+00 0.0000000000000000e+00  0.0000000000000000e+00 0.0000000000000000e+00 0.0000000000000000e+00  7.9238677302871773e-03 -2.6833431839131450e+00 0.0000000000000000e+00  -3.8448837917560348e-03 -2.8410470978759648e+00 0.0000000000000000e+00  6.3087285437583209e-03 -2.6862564925721140e+00 0.0000000000000000e+00  -1.0171784993575832e-02 -2.7009051979681583e-03 0.0000000000000000e+00  -1.1649155426619333e-02 1.8960082729102281e-03 0.0000000000000000e+00  -3.9455323352787864e-03 -4.3478602589289419e-03 0.0000000000000000e+00  -3.7926930714000701e-03 -8.3821120469264061e-03 0.0000000000000000e+00  3.8364921711690427e-04 -4.4229291307408287e-03 0.0000000000000000e+00  1.7131050533028673e-03 -3.7431983128427470e-03 0.0000000000000000e+00  4.1382563886431566e-03 -7.6892703247494658e-03 0.0000000000000000e+00  3.8664615377589557e-03 -1.2329003687811791e-03 0.0000000000000000e+00  1.4489003253835455e-02 -5.0266996968908193e-03 0.0000000000000000e+00  1.5606743432930640e-02 -1.2984822779392851e-02 0.0000000000000000e+00  9.8823354885501525e-03 -1.2365990771420234e-02 0.0000000000000000e+00  1.2120503871419965e-02 -2.6896029260974346e+00 0.0000000000000000e+00  -5.8616541445371288e-05 -2.8450242917510060e+00 0.0000000000000000e+00  9.4490322623646660e-03 -2.6874782322896746e+00 0.0000000000000000e+00  0.0000000000000000e+00 0.0000000000000000e+00 0.0000000000000000e+00  0.0000000000000000e+00 0.0000000000000000e+00 0.0000000000000000e+00  6.3364536578331670e-03 -2.6790493761640013e+00 0.0000000000000000e+00  -8.6124304212940490e-03 -2.8362092340177685e+00 0.0000000000000000e+00  -4.5722367882372779e-03 -2.6800598306426422e+00 0.0000000000000000e+00  -4.5881011694519622e-02 1.4607946310595435e-02 0.0000000000000000e+00  -3.5349000641456241e-02 1.0484049637508448e-02 0.0000000000000000e+00  -1.9435955517563764e-02 7.0545335366776355e-03 0.0000000000000000e+00  7.6195463289113882e-04 -1.5528919663732384e-02 0.0000000000000000e+00  1.2135166821669572e-03 -6.1754470701982601e-03 0.0000000000000000e+00  3.9557701909602588e-03 -4.4518411098459342e-03 0.0000000000000000e+00  6.4089174453981395e-03 -4.7444752421781965e-03 0.0000000000000000e+00  6.1473080535902795e-03 -5.2643721743032661e-03 0.0000000000000000e+00  3.0463929416261269e-02 -8.2275843928627124e-03 0.0000000000000000e+00  3.7055207903733713e-02 -1.6457187921090393e-02 0.0000000000000000e+00  3.8952490198332086e-02 -2.0730182629743164e-02 0.0000000000000000e+00  1.8226810029234264e-02 -2.6864987906977680e+00 0.0000000000000000e+00  2.2227379146928196e-03 -2.8407751108042092e+00 0.0000000000000000e+00  1.0255428332835343e-02 -2.6831419040798932e+00 0.0000000000000000e+00  0.0000000000000000e+00 0.0000000000000000e+00 0.0000000000000000e+00  0.0000000000000000e+00 0.0000000000000000e+00 0.0000000000000000e+00  5.5051806048604466e-03 -2.6714039816551507e+00 0.0000000000000000e+00  -1.0469750283252033e-02 -2.8284650221564882e+00 0.0000000000000000e+00  -3.3006285908739321e-03 -2.6742214342079289e+00 0.0000000000000000e+00  -2.8698348186080719e-02 7.0455948301310816e-03 0.0000000000000000e+00  -3.6353583821866681e-02 1.2063550331580294e-02 0.0000000000000000e+00  -4.7928508726690994e-02 2.6950184541812826e-02 0.0000000000000000e+00  -1.8979177017031126e-02 -2.3401976846568549e-02 0.0000000000000000e+00  -6.8521763246963919e-03 -2.4537252630438565e-02 0.0000000000000000e+00  2.2847038496088858e-03 -2.3005918910729867e-02 0.0000000000000000e+00  9.1620567403482827e-03 -2.2695772525648698e-02 0.0000000000000000e+00  1.0874522060713335e-02 -2.2640920204270807e-02 0.0000000000000000e+00  2.1757751287779046e-02 -1.1076815480672948e-02 0.0000000000000000e+00  3.2258932455067696e-02 -1.1251071466536190e-02 0.0000000000000000e+00  4.1241385799800037e-02 -5.7924486664908265e-03 0.0000000000000000e+00  2.2888613420117849e-02 -2.6815578218643479e+00 0.0000000000000000e+00  3.3900607371735374e-03 -2.8342230620828603e+00 0.0000000000000000e+00  1.0755306830476116e-02 -2.6764729454269953e+00 0.0000000000000000e+00  0.0000000000000000e+00 0.0000000000000000e+00 0.0000000000000000e+00  0.0000000000000000e+00 0.0000000000000000e+00 0.0000000000000000e+00  4.6915548558776610e-03 -2.6604676212027294e+00 0.0000000000000000e+00  -1.2720580692911956e-02 -2.8176973532023371e+00 0.0000000000000000e+00  -6.9942346686621372e-03 -2.6637361334418284e+00 0.0000000000000000e+00  -1.0425767938490017e-02 -3.8452307268483166e-03 0.0000000000000000e+00  -1.5422558728627689e-02 -2.0036049618525967e-03 0.0000000000000000e+00  -1.8139452373639637e-02 -6.4489456720577378e-03 0.0000000000000000e+00  -1.3080053374433579e-02 -3.7466021784061311e-02 0.0000000000000000e+00  -5.4081227607278258e-03 -3.9632157901883451e-02 0.0000000000000000e+00  2.0222444285577963e-03 -3.9235323290005494e-02 0.0000000000000000e+00  9.4871579736003613e-03 -3.8671759409662075e-02 0.0000000000000000e+00  1.5592036173796451e-02 -3.5600481275258444e-02 0.0000000000000000e+00  1.1880012367907106e-02 1.7318126735412841e-03 0.0000000000000000e+00  1.6710830002851985e-02 -1.4709141315166535e-04 0.0000000000000000e+00  1.9360242130114561e-02 -4.3933110136483823e-03 0.0000000000000000e+00  2.3772500840516519e-02 -2.6713645027489412e+00 0.0000000000000000e+00  5.8626538797935182e-03 -2.8255576480050388e+00 0.0000000000000000e+00  1.1564648093830352e-02 -2.6670729720986124e+00 0.0000000000000000e+00  0.0000000000000000e+00 0.0000000000000000e+00 0.0000000000000000e+00  0.0000000000000000e+00 0.0000000000000000e+00 0.0000000000000000e+00  3.7573610385748229e-03 -2.6459553436311043e+00 0.0000000000000000e+00  -1.5234858934748874e-02 -2.8034227905750737e+00 0.0000000000000000e+00  -1.0558193894838227e-02 -2.6491352720219425e+00 0.0000000000000000e+00  -3.3089650197134779e-03 -1.2646484367613378e-02 0.0000000000000000e+00  -7.3592326152161170e-03 -1.0901091829355012e-02 0.0000000000000000e+00  -1.0936558533993701e-02 -8.6723111726399703e-03 0.0000000000000000e+00  -1.6978056565738919e-02 -5.4420245742178901e-02 0.0000000000000000e+00  -7.7935708445663844e-03 -5.6183102056317616e-02 0.0000000000000000e+00  2.0261666087138053e-03 -5.6961903823602292e-02 0.0000000000000000e+00  1.1650075890228508e-02 -5.6761803080790103e-02 0.0000000000000000e+00  1.9405318355531449e-02 -5.3847215304948903e-02 0.0000000000000000e+00  4.2152861577958037e-03 9.0425877787477342e-03 0.0000000000000000e+00  7.8169004590027680e-03 6.4550302871292618e-03 0.0000000000000000e+00  1.1159177299348360e-02 5.4036639624891547e-03 0.0000000000000000e+00  2.6555459948012672e-02 -2.6579130439174050e+00 0.0000000000000000e+00  8.6376300124675655e-03 -2.8130228809542652e+00 0.0000000000000000e+00  1.2612136801345566e-02 -2.6540400325493487e+00 0.0000000000000000e+00  0.0000000000000000e+00 0.0000000000000000e+00 0.0000000000000000e+00  0.0000000000000000e+00 0.0000000000000000e+00 0.0000000000000000e+00  2.8881483680522806e-03 -2.6281086227956263e+00 0.0000000000000000e+00  -1.7416067089698079e-02 -2.7858069491729482e+00 0.0000000000000000e+00  -1.4017408056810867e-02 -2.6303387027321126e+00 0.0000000000000000e+00  -9.6112036749740684e-04 -1.6845185765081504e-02 0.0000000000000000e+00  -3.4103723483172258e-03 -1.5160787693889821e-02 0.0000000000000000e+00  -4.5263395660174194e-03 -1.4200879174004612e-02 0.0000000000000000e+00  -1.9912877087431616e-02 -7.8520112927971092e-02 0.0000000000000000e+00  -9.9774242957662383e-03 -7.8003829352954204e-02 0.0000000000000000e+00  1.6318046857093926e-03 -7.8498410345870212e-02 0.0000000000000000e+00  1.3001182175571595e-02 -7.8767518204986148e-02 0.0000000000000000e+00  2.2331720669230587e-02 -7.7335047572070367e-02 0.0000000000000000e+00  2.2451031379942012e-03 1.2998345353055912e-02 0.0000000000000000e+00  4.6931786219469203e-03 1.1347712372884141e-02 0.0000000000000000e+00  5.8694232963470714e-03 1.0280467447153767e-02 0.0000000000000000e+00  3.0048436883833470e-02 -2.6391580452832746e+00 0.0000000000000000e+00  1.1601553435083902e-02 -2.7963765577097401e+00 0.0000000000000000e+00  1.3722094483589032e-02 -2.6370248580557023e+00 0.0000000000000000e+00  0.0000000000000000e+00 0.0000000000000000e+00 0.0000000000000000e+00  0.0000000000000000e+00 0.0000000000000000e+00 0.0000000000000000e+00  2.3500124368172272e-03 -2.6080075560005231e+00 0.0000000000000000e+00  -1.8586267809067754e-02 -2.7659062104452112e+00 0.0000000000000000e+00  -1.5982757680173258e-02 -2.6086339824437101e+00 0.0000000000000000e+00  -9.5480998679846189e-04 -1.7631272604457442e-02 0.0000000000000000e+00  -2.0181846627358169e-03 -1.7229767190695043e-02 0.0000000000000000e+00  -1.8849131549028778e-03 -1.7405095401397282e-02 0.0000000000000000e+00  -2.1351197595949750e-02 -1.0577632879871368e-01 0.0000000000000000e+00  -1.1259775548234312e-02 -1.0280406572225335e-01 0.0000000000000000e+00  1.1770890530445042e-03 -1.0287622147857144e-01 0.0000000000000000e+00  1.3409127641930096e-02 -1.0359163002803914e-01 0.0000000000000000e+00  2.3857757519282791e-02 -1.0420931941372333e-01 0.0000000000000000e+00  2.6562114558729122e-03 1.3671180702126686e-02 0.0000000000000000e+00  3.6667577797407811e-03 1.3135714996980142e-02 0.0000000000000000e+00  3.4111361314260887e-03 1.3113746521602139e-02 0.0000000000000000e+00  3.1897500960520825e-02 -2.6167262006214238e+00 0.0000000000000000e+00  1.3342154194747255e-02 -2.7762780142897001e+00 0.0000000000000000e+00  1.4383650506698832e-02 -2.6168513254827670e+00 0.0000000000000000e+00  1.8048078924796842e-10 5.7196443269642289e-11 0.0000000000000000e+00  0.0000000000000000e+00 0.0000000000000000e+00 0.0000000000000000e+00  2.3443218986637870e-03 -2.5874150001456249e+00 0.0000000000000000e+00  -1.8274023486852451e-02 -2.7454971527138232e+00 0.0000000000000000e+00  -1.5664649148261527e-02 -2.5861311488694279e+00 0.0000000000000000e+00  -1.8177232311863778e-03 -1.5943736380016095e-02 0.0000000000000000e+00  -1.7116690319695631e-03 -1.6994021359962672e-02 0.0000000000000000e+00  -4.3302442119030264e-04 -1.8482496335368505e-02 0.0000000000000000e+00  -2.0679317270101406e-02 -1.3358575221822502e-01 0.0000000000000000e+00  -1.1300079260855396e-02 -1.2823588391169971e-01 0.0000000000000000e+00  7.6357644091382918e-04 -1.2779012172467552e-01 0.0000000000000000e+00  1.2662616367087366e-02 -1.2894335068514740e-01 0.0000000000000000e+00  2.3246960796336761e-02 -1.3191124469786561e-01 0.0000000000000000e+00  3.8284987013166186e-03 1.1811316713508465e-02 0.0000000000000000e+00  3.6557815889177035e-03 1.2759008588238049e-02 0.0000000000000000e+00  2.3180977610464532e-03 1.4158209903089596e-02 0.0000000000000000e+00  3.1679123263643631e-02 -2.5930903641915553e+00 0.0000000000000000e+00  1.3505010990677017e-02 -2.7548027562616797e+00 0.0000000000000000e+00  1.4422108506828926e-02 -2.5954026356113422e+00 0.0000000000000000e+00  0.0000000000000000e+00 0.0000000000000000e+00 0.0000000000000000e+00  0.0000000000000000e+00 0.0000000000000000e+00 0.0000000000000000e+00  2.9510795121264512e-03 -2.5684162223434339e+00 0.0000000000000000e+00  -1.6340437090358161e-02 -2.7266706880750484e+00 0.0000000000000000e+00  -1.2834366350029961e-02 -2.5652363788430104e+00 0.0000000000000000e+00  -2.6016018593731384e-03 -1.2443119836628415e-02 0.0000000000000000e+00  -1.4987083818207641e-03 -1.4923829278973016e-02 0.0000000000000000e+00  5.8668705700509576e-04 -1.7741497789206306e-02 0.0000000000000000e+00  -1.7689752970747069e-02 -1.5905116264713143e-01 0.0000000000000000e+00  -9.9907418428150634e-03 -1.5166024638622286e-01 0.0000000000000000e+00  4.3886049944645583e-04 -1.5070108505632024e-01 0.0000000000000000e+00  1.0737690255341440e-02 -1.5223398300070654e-01 0.0000000000000000e+00  2.0345388869394992e-02 -1.5752413102557195e-01 0.0000000000000000e+00  4.8535922218961060e-03 8.1788088440551149e-03 0.0000000000000000e+00  3.6851581510595408e-03 1.0587056945602899e-02 0.0000000000000000e+00  1.5342848174932592e-03 1.3325132257119050e-02 0.0000000000000000e+00  2.9097276551562044e-02 -2.5707059232263560e+00 0.0000000000000000e+00  1.1971065293233307e-02 -2.7342204409898163e+00 0.0000000000000000e+00  1.3795865993818929e-02 -2.5749205489592830e+00 0.0000000000000000e+00  0.0000000000000000e+00 0.0000000000000000e+00 0.0000000000000000e+00  0.0000000000000000e+00 0.0000000000000000e+00 0.0000000000000000e+00  4.1410117919234339e-03 -2.5530512351888182e+00 0.0000000000000000e+00  -1.2921233449983414e-02 -2.7114621690486502e+00 0.0000000000000000e+00  -7.6892575775479484e-03 -2.5482474682176233e+00 0.0000000000000000e+00  -2.8363687318752264e-03 -7.8005179652861556e-03 0.0000000000000000e+00  -9.4800017497908879e-04 -1.1474785943668334e-02 0.0000000000000000e+00  1.6448924522551272e-03 -1.5374980696662190e-02 0.0000000000000000e+00  -1.2649643836072437e-02 -1.7942876396504809e-01 0.0000000000000000e+00  -7.4761523616564511e-03 -1.7056495650322026e-01 0.0000000000000000e+00  2.0801820036874923e-04 -1.6916403429664389e-01 0.0000000000000000e+00  7.7834168419141274e-03 -1.7097464136072371e-01 0.0000000000000000e+00  1.5373031885862986e-02 -1.7827128242145610e-01 0.0000000000000000e+00  5.2650193058225896e-03 3.4314782251897787e-03 0.0000000000000000e+00  3.3096050848380248e-03 7.0574065544743193e-03 0.0000000000000000e+00  6.5167799047806342e-04 1.0904443642078994e-02 0.0000000000000000e+00  2.4316384833167420e-02 -2.5519891018132950e+00 0.0000000000000000e+00  8.8709740774435327e-03 -2.7167390606408892e+00 0.0000000000000000e+00  1.2563740786201734e-02 -2.5575978454829058e+00 0.0000000000000000e+00  0.0000000000000000e+00 0.0000000000000000e+00 0.0000000000000000e+00  0.0000000000000000e+00 0.0000000000000000e+00 0.0000000000000000e+00  5.7997527330080293e-03 -2.5430178462372912e+00 0.0000000000000000e+00  -8.3581966712638830e-03 -2.7015568136770614e+00 0.0000000000000000e+00  -7.5233503660017973e-04 -2.5370544498599625e+00 0.0000000000000000e+00  -2.4269549144576570e-03 -2.6246947867297693e-03 0.0000000000000000e+00  1.9989029544080762e-05 -7.0958273666821611e-03 0.0000000000000000e+00  2.8331223675634055e-03 -1.1681382007760194e-02 0.0000000000000000e+00  -6.0922728832450085e-03 -1.9252597156082163e-01 0.0000000000000000e+00  -4.0470838145093635e-03 -1.8290578770538821e-01 0.0000000000000000e+00  6.9675133076665870e-05 -1.8118045773280841e-01 0.0000000000000000e+00  4.0861586031824991e-03 -1.8313004577902778e-01 0.0000000000000000e+00  8.8391452793234928e-03 -1.9189035563093387e-01 0.0000000000000000e+00  4.9638661210718452e-03 -1.8208030331097963e-03 0.0000000000000000e+00  2.4516806458132773e-03 2.6268710869653384e-03 0.00000000000000