<?xml version="1.0"?>
<VTKFile type="UnstructuredGrid"  version="0.1"  >
<UnstructuredGrid>
<Piece  NumberOfPoints="589" NumberOfCells="1080">
<Points>
<DataArray  type="Float64"  NumberOfComponents="3"  format="ascii">-9 0 0  -8 0 0  -7 0 0  -6 0 0  -5 0 0  -4 0 0  -3 0 0  -2 0 0  -1 0 0  0 0 0  1 0 0  2 0 0  3 0 0  4 0 0  5 0 0  6 0 0  7 0 0  8 0 0  9 0 0  -9 2 0  -8.000007038727485 1.999988932810995 0  -7.000014779916237 1.999979271605948 0  -6.000024909405225 1.999972163281003 0  -5.000041308386122 1.999968126756317 0  -4.000023971301838 1.999976028415153 0  -3.000006174935624 1.999983757496963 0  -1.999997601220296 1.999991109860699 0  -0.9999964005061618 1.999996918382547 0  2.077740463043154e-07 1.999999434014856 0  0.9999965385598433 1.999997571007963 0  1.999996803327174 1.999991743168028 0  3.000003847015575 1.999984587075421 0  4.000018594211032 1.999976863446828 0  5.00004009892562 1.999973471178142 0  6.000024362201507 1.999974663519192 0  7.000014566811533 1.99998048998645 0  8.000006977606494 1.999989447613149 0  9 2 0  -9.000000000004983 4 0  -8.000011267465192 3.999972242394781 0  -7.000020006688578 3.999948332214589 0  -6.000024740775614 3.999932039648063 0  -5.000025785044521 3.999926961178396 0  -4.000000204023967 3.999930589620995 0  -2.99998312034161 3.999952680234411 0  -1.999978875976069 3.999981517342631 0  -0.9999857755057134 4.000004725116619 0  1.276624026389578e-06 4.000013987627872 0  0.999988097972181 4.000006388306798 0  1.999980433226551 3.999986165158243 0  2.999984050826418 3.99995878261987 0  4.000000734317887 3.999931083080002 0  5.000026291517607 3.999921282192306 0  6.000024958892068 3.999930791060922 0  7.000020308661941 3.999948456170087 0  8.000011508481904 3.999972517046076 0  9 4 0  -9 6 0  -8.000025608269492 5.999940165845373 0  -7.000041253937491 5.99988692568567 0  -6.000039331364591 5.999847062861147 0  -5.000017648393164 5.999827092683732 0  -3.999967254286728 5.999859852242426 0  -2.99994441098733 5.999928653422584 0  -1.999953620246707 6.000000861456214 0  -0.9999764561562325 6.000041056644236 0  3.417091946226411e-07 6.000049018012891 0  0.9999793760583597 6.000035700664883 0  1.999963327920313 5.999999019561258 0  2.999957278669004 5.999937037558205 0  3.999969354809792 5.999872606410807 0  5.000012970344684 5.999840239787706 0  6.000038825951465 5.999854296833659 0  7.000042649263617 5.99989084297107 0  8.000026871035955 5.999941901674102 0  9 6 0  -9 8 0  -8.00007978933991 7.999881728593343 0  -7.000132767742676 7.999772027753366 0  -6.000132959578089 7.999682533322732 0  -5.00005811601214 7.99963241444564 0  -3.999960369238396 7.999784492814807 0  -2.999978109051856 7.999963367392388 0  -2.000014621800698 8.000050776412277 0  -1.00001777504652 8.000061029606744 0  3.914834199640349e-06 8.0000640752453 0  1.00001992808617 8.000072959559095 0  2.000012719066388 8.000035723183425 0  2.999969371972373 7.99997244910328 0  3.99995447395869 7.999816016326208 0  5.000051624656678 7.999639480160587 0  6.000140809121795 7.999687871591507 0  7.000143380843616 7.999775198977934 0  8.000086591736801 7.99988314256021 0  9 8 0  -9 10 0  -8.00024113015076 9.999789076780567 0  -7.000435338072276 9.999576409351237 0  -6.000526642471081 9.999360674920593 0  -5.00043705262879 9.999141554811855 0  -4.000282133597422 9.999632604152872 0  -3.000306970439209 10.00005499302608 0  -2.000244023648555 9.99998308657371 0  -1.000108000275973 9.999960004802587 0  -7.489070826394303e-06 9.99995434987167 0  1.000092486939712 9.999954678484521 0  2.000226096965499 9.999951602199264 0  3.000342986403924 10.00010567765643 0  4.00032735408781 9.999697244784647 0  5.000506503193546 9.9991582676445 0  6.000589057510376 9.999365846366322 0  7.00048143808543 9.999577170683738 0  8.000265445790228 9.999788779063719 0  9 10 0  -9 12 0  -8.000589770568668 11.99970354636466 0  -7.001148886045904 11.9993933029666 0  -6.00164267139967 11.99905278469005 0  -5.002028048346284 11.99865902017389 0  -4.001948736600524 11.99955410421042 0  -3.002019621226429 12.00044011542167 0  -2.001375088476523 12.00033478892082 0  -1.000659654778861 12.00027876339078 0  8.211249553830259e-05 12.00026968986464 0  1.00083009713607 12.00030959173439 0  2.001566982174126 12.00040953838533 0  3.002258403563602 12.00059705580298 0  4.002179702376647 11.9996145649823 0  5.002232483044869 11.99862378185386 0  6.001797079992401 11.99902917211577 0  7.001252525465738 11.99937821073504 0  8.000641831363435 11.99969609213359 0  9 12 0  -9 14 0  -8.001060228377748 13.99967333836825 0  -7.002122467839094 13.99933157903442 0  -6.00319013116586 13.9989582929709 0  -5.004270219459777 13.99853443813756 0  -4.004281378233068 13.99957979569516 0  -3.004287103596658 14.00063825213716 0  -2.002791275840541 14.00048958892476 0  -1.001317288911944 14.00040998144794 0  0.0001470777767169287 14.00038937800053 0  1.001613351849931 14.00042463736501 0  2.003092050916761 14.0005176407449 0  3.004591152254993 14.00067339066668 0  4.004601483306534 13.99957602294253 0  5.004609632890948 13.99848520631741 0  6.003439682911001 13.9989185683357 0  7.002286983346844 13.99930427747491 0  8.001142024300258 13.99965951765308 0  9 14 0  -9 16 0  -8.00152154729787 15.99970362991246 0  -7.003072549070515 15.99939619272523 0  -6.004684982312108 15.99906642399703 0  -5.006395965042762 15.99870283894473 0  -4.006457278696407 15.99959238413875 0  -3.006398710400571 16.00047708032956 0  -2.004122958728447 16.00036905940609 0  -1.001937672057437 16.00030590549761 0  0.0002045071786329771 16.0002862702191 0  1.002348308466062 16.00030935528442 0  2.004538423631215 16.00037540710945 0  3.006822353785916 16.00048549020735 0  4.006886924913068 15.99954748790388 0  5.00683067035536 15.99860865303832 0  6.005009848010243 15.99899903504392 0  7.003288392709755 15.99935254106988 0  8.001629230267332 15.9996821441317 0  9 16 0  -9 18 0  -8.00186389379534 17.99977821854822 0  -7.003774833795271 17.99955024847769 0  -6.005782300584761 17.99931000761779 0  -5.007940617371184 17.99905164960057 0  -4.008033364071542 17.99959482798772 0  -3.00794327973425 18.00013715992675 0  -2.005096464637872 18.00006980373448 0  -1.002387328765019 18.00002852601096 0  0.0002554248020282817 18.0000130448308 0  1.002899643211637 18.00002295530917 0  2.00561307937456 18.00005776869191 0  3.008466711697752 18.00011677829534 0  4.008561740727274 17.99952613730731 0  5.008471438637365 17.99893704333128 0  6.006178601806509 17.99922730419884 0  7.004038148527023 17.99949660076174 0  8.001995284487204 17.99975182794942 0  9 18 0  -9 20 0  -8.002016985834528 19.99987754476549 0  -7.004088887860134 19.99975341779857 0  -6.006272719731625 19.99962612708769 0  -5.008629690760821 19.99949453269228 0  -4.008735623257682 19.99959431873609 0  -3.008630319410444 19.999693160526 0  -2.005523433587481 19.99966678566387 0  -1.00257342370898 19.99964853481955 0  0.0003004363988831291 19.99963882225995 0  1.003175963555504 19.99963749639301 0  2.006130960288413 19.99964385989506 0  3.009246124195316 19.99965661936831 0  4.009353928314955 19.99951550083647 0  5.009247793390741 19.99937540091038 0  6.006733749770225 19.99953951878426 0  7.004395034477856 19.99969698083223 0  8.002169698991864 19.99984971631368 0  8.999999999981279 19.99999999999385 0  -9 22 0  -8.001949418523774 21.99998353978268 0  -7.003953101043257 21.99996924158116 0  -6.006067025057392 21.99995947201946 0  -5.008350579271152 21.9999570115213 0  -4.008454316318453 21.99958957714952 0  -3.008350756330557 21.99922108533895 0  -2.005327159220175 21.99923145891444 0  -1.002456916177975 21.99923459528744 0  0.0003387993789227176 21.99923125926475 0  1.003136440335103 21.99922147263925 0  2.006012470515936 21.99920452824776 0  3.009045752971376 21.99917897607652 0  4.00915004461366 21.99951212076023 0  5.009043598068183 21.99984577572855 0  6.006583663870293 21.99987834491752 0  7.004296040242053 21.99991624578928 0  8.002120439563514 21.99995736842011 0  9 22 0  -9 24 0  -8.001663762326626 24.00008089101291 0  -7.003374164557481 24.00016695548591 0  -6.005179174804188 24.00026358087975 0  -5.007129334026782 24.00037659260851 0  -4.007218682255647 23.99958077457585 0  -3.007130254216746 23.99878397461744 0  -2.004521625386132 23.99882491729813 0  -1.00204421030862 23.99884639204742 0  0.0003695736515923922 23.99884934501464 0  1.002785510197138 23.99883391599697 0  2.00526940560331 23.99879944157574 0  3.007888913735351 23.99874444939848 0  4.007976623281172 23.99951408482586 0  5.007882689167084 24.00028393487186 0  6.005740580675205 24.00019581467316 0  7.00374671718698 24.00012260020655 0  8.001849518339016 24.00005896005785 0  9 24 0  -9 26 0  -8.001190359496377 26.00015757331855 0  -7.002414453188351 26.00032245020174 0  -6.003706959819609 26.00050215198921 0  -5.005104256057749 26.0007046516458 0  -4.005169884041628 25.99956842935233 0  -3.005106706247691 25.99843140879591 0  -2.003195251518176 25.99849587160728 0  -1.001378799824339 25.99853189948238 0  0.0003919135865535722 25.99854057885481 0  1.002164935388125 25.99852215242759 0  2.003988337784734 25.99847602177556 0  3.005911463513038 25.99840074353933 0  4.005972856309159 25.99951960628671 0  5.005901268493201 26.00063846591075 0  6.004300802985576 26.0004536534799 0  7.002808485631748 26.00029066043273 0  8.001386811108633 26.00014184084648 0  9 26 0  -9 28 0  -8.000580631844874 28.00020506898452 0  -7.001178567450981 28.00041866585565 0  -6.001811648112763 28.00064954090883 0  -5.002498526160533 28.00090689648831 0  -4.002534027732366 27.99955364915026 0  -3.002502748787565 27.99819991733836 0  -2.001492811260678 27.9982801639895 0  -1.000532223212526 27.99832639609322 0  0.0004051954493112061 27.99833982290931 0  1.00134499447695 27.99832078589888 0  2.002312746763861 27.9982687595833 0  3.003334703008635 27.99818234986136 0  4.003363522155725 27.99952743216516 0  5.003321228624412 28.00087242269677 0  6.002424625727191 28.00062423291391 0  7.001585295623552 28.00040205362055 0  8.00078
[...]
<PointData  Vectors="f_44-0"> 
<DataArray  type="Float64"  Name="f_44-0"  NumberOfComponents="3" format="ascii">0.0000000000000000e+00 0.0000000000000000e+00 0.0000000000000000e+00  6.0026538836555540e-07 -1.0560395023383041e+01 0.0000000000000000e+00  5.0482004510243762e-07 -1.0699249950000578e+01 0.0000000000000000e+00  7.4509546001156699e-07 -1.0163333342018287e+01 0.0000000000000000e+00  0.0000000000000000e+00 0.0000000000000000e+00 0.0000000000000000e+00  0.0000000000000000e+00 0.0000000000000000e+00 0.0000000000000000e+00  0.0000000000000000e+00 0.0000000000000000e+00 0.0000000000000000e+00  0.0000000000000000e+00 0.0000000000000000e+00 0.0000000000000000e+00  0.0000000000000000e+00 0.0000000000000000e+00 0.0000000000000000e+00  0.0000000000000000e+00 0.0000000000000000e+00 0.0000000000000000e+00  0.0000000000000000e+00 0.0000000000000000e+00 0.0000000000000000e+00  0.0000000000000000e+00 0.0000000000000000e+00 0.0000000000000000e+00  0.0000000000000000e+00 0.0000000000000000e+00 0.0000000000000000e+00  0.0000000000000000e+00 0.0000000000000000e+00 0.0000000000000000e+00  0.0000000000000000e+00 0.0000000000000000e+00 0.0000000000000000e+00  6.1315775245515397e-07 -1.0573167952307649e+01 0.0000000000000000e+00  5.1215002913667082e-07 -1.0712442186543763e+01 0.0000000000000000e+00  7.5379965097933228e-07 -1.0175920775976946e+01 0.0000000000000000e+00  0.0000000000000000e+00 0.0000000000000000e+00 0.0000000000000000e+00  0.0000000000000000e+00 0.0000000000000000e+00 0.0000000000000000e+00  -5.5633025981212746e-02 -1.0314056407783466e+01 0.0000000000000000e+00  -8.5955687829628643e-03 -1.0719010201004059e+01 0.0000000000000000e+00  2.1543053359368857e-02 -1.0310054986195118e+01 0.0000000000000000e+00  1.9662749147235396e-03 -1.9094370514874566e-04 0.0000000000000000e+00  1.9695732346136858e-03 -7.9425270868231418e-04 0.0000000000000000e+00  1.0467522058263893e-03 -4.2023856208224975e-04 0.0000000000000000e+00  7.3963138544614053e-04 2.2552640415694980e-04 0.0000000000000000e+00  4.2448375100052969e-04 5.6413282620619923e-04 0.0000000000000000e+00  1.9920216593830302e-04 4.4146199033121372e-04 0.0000000000000000e+00  -3.3061968108466569e-05 3.1033718696948673e-05 0.0000000000000000e+00  -2.3474913009550511e-04 -4.7450973527853415e-04 0.0000000000000000e+00  -5.8635468003058770e-04 -1.2582300010843006e-03 0.0000000000000000e+00  -1.1398129284120031e-03 -1.4097561335148689e-03 0.0000000000000000e+00  -2.0391473160666185e-03 -2.5530290369863377e-03 0.0000000000000000e+00  -5.7228558628673418e-02 -1.0327697920775167e+01 0.0000000000000000e+00  -8.9571836749060586e-03 -1.0732744148306114e+01 0.0000000000000000e+00  2.0629611367504391e-02 -1.0324028999035804e+01 0.0000000000000000e+00  0.0000000000000000e+00 0.0000000000000000e+00 0.0000000000000000e+00  0.0000000000000000e+00 0.0000000000000000e+00 0.0000000000000000e+00  2.9179538233200381e-04 -1.0308091564279433e+01 0.0000000000000000e+00  -2.2109493601493311e-02 -1.0690068190147672e+01 0.0000000000000000e+00  2.8535612523435654e-03 -1.0312196114043372e+01 0.0000000000000000e+00  -1.1671898315011771e-03 -1.4871218002742088e-03 0.0000000000000000e+00  -2.8957822771919237e-05 6.5066193970696922e-04 0.0000000000000000e+00  1.3108318211138610e-04 2.1929649263781261e-03 0.0000000000000000e+00  -1.7238329022136237e-05 2.0660823739190185e-03 0.0000000000000000e+00  -4.3534905959971061e-04 8.2888429678041773e-04 0.0000000000000000e+00  -5.0686575657823605e-04 -2.1567115699864677e-04 0.0000000000000000e+00  -2.7134685211924436e-04 -3.0544289996534715e-04 0.0000000000000000e+00  5.5610070372887771e-04 -7.8755127761642328e-04 0.0000000000000000e+00  6.6473860859970666e-04 -1.2884032485135908e-03 0.0000000000000000e+00  1.8578225212943832e-04 -2.9800229451136762e-04 0.0000000000000000e+00  -4.6317057185648409e-04 7.2911826992315420e-04 0.0000000000000000e+00  -7.2884240331298040e-04 -1.0320239722443013e+01 0.0000000000000000e+00  -2.3163784313215550e-02 -1.0701041228423202e+01 0.0000000000000000e+00  9.7023899041007394e-04 -1.0323135508579146e+01 0.0000000000000000e+00  0.0000000000000000e+00 0.0000000000000000e+00 0.0000000000000000e+00  0.0000000000000000e+00 0.0000000000000000e+00 0.0000000000000000e+00  1.0599351543932567e-02 -1.0309524138547284e+01 0.0000000000000000e+00  -4.2405534689665316e-03 -1.0677964340846636e+01 0.0000000000000000e+00  5.3167534629554184e-03 -1.0296928135732864e+01 0.0000000000000000e+00  -3.0289320130399626e-03 3.4582591839259188e-03 0.0000000000000000e+00  -1.8446582363203705e-03 6.0672822175962711e-03 0.0000000000000000e+00  -1.9260424437645798e-03 4.6424786206875675e-03 0.0000000000000000e+00  -2.8748744756159589e-03 -7.7067693906251848e-04 0.0000000000000000e+00  -1.7066708567733129e-03 -3.2855992478929290e-03 0.0000000000000000e+00  -1.2519122727960266e-04 -1.8659818599733903e-03 0.0000000000000000e+00  1.1271828825372718e-03 -9.4422216433004370e-04 0.0000000000000000e+00  1.0294148465307027e-03 -4.4969651580691652e-04 0.0000000000000000e+00  1.6665298164602266e-03 4.8726879436208974e-04 0.0000000000000000e+00  2.3525267101216878e-03 -1.5355328660992009e-03 0.0000000000000000e+00  3.9497543054125737e-04 -3.9696881867800739e-03 0.0000000000000000e+00  1.1617735945771238e-02 -1.0320453395789620e+01 0.0000000000000000e+00  -6.8888762997723185e-03 -1.0692069790772184e+01 0.0000000000000000e+00  5.0977292324174100e-04 -1.0315219279724285e+01 0.0000000000000000e+00  0.0000000000000000e+00 0.0000000000000000e+00 0.0000000000000000e+00  0.0000000000000000e+00 0.0000000000000000e+00 0.0000000000000000e+00  1.2017322817614966e-02 -1.0314933332630522e+01 0.0000000000000000e+00  1.0414189294715788e-03 -1.0688565571024023e+01 0.0000000000000000e+00  8.0638716226659572e-03 -1.0317779588468770e+01 0.0000000000000000e+00  -1.1923642412167337e-02 5.7424048586129255e-04 0.0000000000000000e+00  -1.4716509120829795e-02 4.6109054495440394e-03 0.0000000000000000e+00  -5.0345085810026714e-03 -4.9712526357760019e-03 0.0000000000000000e+00  -4.4227342859666880e-03 -1.0857042385863630e-02 0.0000000000000000e+00  7.7577613397742230e-04 -6.1136415640435588e-03 0.0000000000000000e+00  2.2123281877700443e-03 -5.3220869383235423e-03 0.0000000000000000e+00  5.1057451144967108e-03 -1.0427706421860304e-02 0.0000000000000000e+00  4.7902536499820547e-03 -1.8701589523867680e-03 0.0000000000000000e+00  1.8625946486361799e-02 -6.0451376149183037e-03 0.0000000000000000e+00  2.0200824122941528e-02 -1.4540792711743527e-02 0.0000000000000000e+00  1.1979403218673227e-02 -1.1975179470109416e-02 0.0000000000000000e+00  1.0580979499248949e-02 -1.0321314198368229e+01 0.0000000000000000e+00  8.6317497232109937e-04 -1.0689182732595324e+01 0.0000000000000000e+00  5.3607308846926639e-03 -1.0311623757236081e+01 0.0000000000000000e+00  0.0000000000000000e+00 0.0000000000000000e+00 0.0000000000000000e+00  0.0000000000000000e+00 0.0000000000000000e+00 0.0000000000000000e+00  1.1726951947592533e-02 -1.0312355889270512e+01 0.0000000000000000e+00  2.9040520475784185e-04 -1.0679987531908536e+01 0.0000000000000000e+00  6.2838424860456685e-03 -1.0296232190692635e+01 0.0000000000000000e+00  -5.1778338813181196e-02 2.6968937739318907e-02 0.0000000000000000e+00  -4.0465027621959263e-02 1.6742856758025792e-02 0.0000000000000000e+00  -2.0668343288667384e-02 8.0772473351893841e-03 0.0000000000000000e+00  3.5219593919138580e-03 -1.8949976793510539e-02 0.0000000000000000e+00  2.7218860896846726e-03 -7.2007684923657330e-03 0.0000000000000000e+00  5.1060173531297564e-03 -5.0414114981155366e-03 0.0000000000000000e+00  7.1877813414617589e-03 -5.4618081723663637e-03 0.0000000000000000e+00  5.4611866232877624e-03 -6.0846227422925430e-03 0.0000000000000000e+00  3.5259242364195059e-02 -1.1487491163521263e-02 0.0000000000000000e+00  4.3785932813402838e-02 -1.7840992675831686e-02 0.0000000000000000e+00  4.4190980381097832e-02 -1.7714048825633710e-02 0.0000000000000000e+00  1.7407513110913347e-02 -1.0312438274342895e+01 0.0000000000000000e+00  9.8282524991209004e-04 -1.0684849491376530e+01 0.0000000000000000e+00  6.9547756953311692e-03 -1.0309921491190206e+01 0.0000000000000000e+00  0.0000000000000000e+00 0.0000000000000000e+00 0.0000000000000000e+00  0.0000000000000000e+00 0.0000000000000000e+00 0.0000000000000000e+00  1.4284429675922547e-02 -1.0314422735697205e+01 0.0000000000000000e+00  6.5775070290682866e-03 -1.0680695346805935e+01 0.0000000000000000e+00  1.4904230115554397e-02 -1.0299526016697785e+01 0.0000000000000000e+00  -1.3781499614376096e-02 2.2624172492317969e-02 0.0000000000000000e+00  -2.4060139885506947e-02 1.9413838567055818e-02 0.0000000000000000e+00  -3.7563758225195767e-02 2.8468281736726601e-02 0.0000000000000000e+00  -1.4928945395179678e-02 -2.1221405401811205e-02 0.0000000000000000e+00  -5.2235263796496676e-03 -1.9299990918580312e-02 0.0000000000000000e+00  1.3582213644315418e-03 -1.6130581288441262e-02 0.0000000000000000e+00  4.7248499630597055e-03 -1.7844291621943498e-02 0.0000000000000000e+00  -9.3460195925790235e-04 -2.6011584935825484e-02 0.0000000000000000e+00  5.2230680843434749e-03 -2.0232619590352142e-02 0.0000000000000000e+00  1.9233096835397714e-02 -1.0507614818801646e-02 0.0000000000000000e+00  3.0037315133001150e-02 6.3798948781412096e-03 0.0000000000000000e+00  1.7546479031098076e-02 -1.0314776333278193e+01 0.0000000000000000e+00  -4.0911806276507784e-03 -1.0690063058047738e+01 0.0000000000000000e+00  5.0128897288594099e-03 -1.0314746519595234e+01 0.0000000000000000e+00  0.0000000000000000e+00 0.0000000000000000e+00 0.0000000000000000e+00  0.0000000000000000e+00 0.0000000000000000e+00 0.0000000000000000e+00  1.7670161094990918e-02 -1.0324036307448942e+01 0.0000000000000000e+00  1.4185961498156163e-02 -1.0689660629844770e+01 0.0000000000000000e+00  2.6359947182343364e-02 -1.0308470671819741e+01 0.0000000000000000e+00  3.2338734329983521e-02 1.0439678421047503e-02 0.0000000000000000e+00  2.6281693640103763e-02 1.7473838840092490e-03 0.0000000000000000e+00  2.2982265108966910e-02 -1.4831120080683869e-02 0.0000000000000000e+00  2.1078958681668279e-02 -1.9561528583129047e-02 0.0000000000000000e+00  1.0806666605756184e-02 -1.4998937629220260e-02 0.0000000000000000e+00  2.7384462279604524e-03 -1.2374653048629322e-02 0.0000000000000000e+00  -4.0145037774622812e-03 -1.3074915382927030e-02 0.0000000000000000e+00  -1.1252132279830540e-02 -1.5626665874476749e-02 0.0000000000000000e+00  -3.0862078142417974e-02 -4.7684013308580365e-03 0.0000000000000000e+00  -2.4891814377068690e-02 3.8859835507243858e-03 0.0000000000000000e+00  -2.1584815206287664e-02 9.4671219431507886e-03 0.0000000000000000e+00  -4.2839035716895485e-03 -1.0329685999907429e+01 0.0000000000000000e+00  -8.8291483469299051e-03 -1.0703814326226883e+01 0.0000000000000000e+00  2.2118069944193535e-03 -1.0328316035193152e+01 0.0000000000000000e+00  0.0000000000000000e+00 0.0000000000000000e+00 0.0000000000000000e+00  0.0000000000000000e+00 0.0000000000000000e+00 0.0000000000000000e+00  2.0673660113195422e-02 -1.0341036389188236e+01 0.0000000000000000e+00  2.0707048551719426e-02 -1.0706626023209656e+01 0.0000000000000000e+00  3.6663673825368871e-02 -1.0327210254767081e+01 0.0000000000000000e+00  6.3503618470623108e-02 -2.2009037708662967e-03 0.0000000000000000e+00  5.9135278564123241e-02 -9.4037584617252673e-03 0.0000000000000000e+00  5.4121741786455083e-02 -1.5969452815569652e-02 0.0000000000000000e+00  2.8976105939061962e-02 7.0555556460275004e-03 0.0000000000000000e+00  1.4856072989413768e-02 5.2089754422103649e-03 0.0000000000000000e+00  2.9712541242542453e-03 5.5494692577537086e-03 0.0000000000000000e+00  -8.5404031213202596e-03 4.8151677478624469e-03 0.0000000000000000e+00  -2.4559710476151304e-02 3.7768505093903528e-03 0.0000000000000000e+00  -6.2954258206517233e-02 6.5435347120957211e-03 0.0000000000000000e+00  -5.9041373291461093e-02 1.2564114661050689e-02 0.0000000000000000e+00  -5.4159454079178194e-02 2.0513901711464083e-02 0.0000000000000000e+00  -2.2951663911893752e-02 -1.0353858646353046e+01 0.0000000000000000e+00  -1.7209698902371350e-02 -1.0724840987397757e+01 0.0000000000000000e+00  -1.2229724318927584e-04 -1.0348676781055039e+01 0.0000000000000000e+00  0.0000000000000000e+00 0.0000000000000000e+00 0.0000000000000000e+00  0.0000000000000000e+00 0.0000000000000000e+00 0.0000000000000000e+00  2.2507542172009641e-02 -1.0363003551865329e+01 0.0000000000000000e+00  2.4539366260786642e-02 -1.0728807177787848e+01 0.0000000000000000e+00  4.2624200709975628e-02 -1.0351529830635203e+01 0.0000000000000000e+00  8.2750894359618285e-02 -1.1015584921281116e-02 0.0000000000000000e+00  8.0685157966860030e-02 -1.4728255403826810e-02 0.0000000000000000e+00  7.8391440539105101e-02 -1.9338329308393507e-02 0.0000000000000000e+00  3.7103474533379234e-02 3.0878101623198668e-02 0.0000000000000000e+00  1.7712481347269625e-02 3.0219333224864347e-02 0.0000000000000000e+00  2.4578571482717130e-03 3.0729482672793799e-02 0.0000000000000000e+00  -1.2691348359204529e-02 3.0393480508335433e-02 0.0000000000000000e+00  -3.3574936863305468e-02 3.0527952273408744e-02 0.0000000000000000e+00  -8.1711820730749660e-02 1.5479020203461709e-02 0.0000000000000000e+00  -7.9540222976401731e-02 1.9043684584647318e-02 0.0000000000000000e+00  -7.7049244212176848e-02 2.3318554248577445e-02 0.0000000000000000e+00  -3.4169241606305648e-02 -1.0381303385199226e+01 0.0000000000000000e+00  -2.2932667202869520e-02 -1.0748564607275517e+01 0.0000000000000000e+00  -2.0104426641247564e-03 -1.0371914729842928e+01 0.0000000000000000e+00  0.0000000000000000e+00 0.0000000000000000e+00 0.0000000000000000e+00  0.0000000000000000e+00 0.0000000000000000e+00 0.0000000000000000e+00  2.2898153866913736e-02 -1.0386753032905467e+01 0.0000000000000000e+00  2.5246895369969050e-02 -1.0752843564140779e+01 0.0000000000000000e+00  4.3885114731367830e-02 -1.0377683625800964e+01 0.0000000000000000e+00  9.0248367811349581e-02 -1.6558380933113202e-02 0.0000000000000000e+00  9.0038248470198076e-02 -1.7301718143816005e-02 0.0000000000000000e+00  8.9148697759649384e-02 -1.8758835567470898e-02 0.0000000000000000e+00  3.9656854856871697e-02 6.2031399588882152e-02 0.0000000000000000e+00  1.8489604872615500e-02 5.9897970085517671e-02 0.0000000000000000e+00  1.7412223452718506e-03 6.0049582134633343e-02 0.0000000000000000e+00  -1.4824781812782267e-02 6.0196530039455083e-02 0.0000000000000000e+00  -3.7611817637690982e-02 6.1863598931365747e-02 0.0000000000000000e+00  -8.8518225854297861e-02 2.1168885479605923e-02 0.0000000000000000e+00  -8.8274043373289326e-02 2.1505952846052546e-02 0.0000000000000000e+00  -8.7437900007190525e-02 2.2477760973157734e-02 0.0000000000000000e+00  -3.8465043177601056e-02 -1.0408715453989004e+01 0.0000000000000000e+00  -2.5396921695488146e-02 -1.0772585581215790e+01 0.0000000000000000e+00  -2.8905928231432584e-03 -1.0395163727558103e+01 0.0000000000000000e+00  -7.8675889793049796e-10 -2.3954111513553045e-09 0.0000000000000000e+00  0.0000000000000000e+00 0.0000000000000000e+00 0.0000000000000000e+00  2.1882449889424886e-02 -1.0409196804022327e+01 0.0000000000000000e+00  2.3020742683700312e-02 -1.0775640920154165e+01 0.0000000000000000e+00  4.0813346044429863e-02 -1.0402447600358911e+01 0.0000000000000000e+00  8.6675643588251444e-02 -1.9206400012196711e-02 0.0000000000000000e+00  8.7904520581178550e-02 -1.6955453572441492e-02 0.0000000000000000e+00  8.8469738912198018e-02 -1.5244214766759027e-02 0.0000000000000000e+00  3.7853177055441174e-02 9.3688110938479535e-02 0.0000000000000000e+00  1.7397824449851090e-02 9.0395814391703966e-02 0.0000000000000000e+00  1.1530361380001778e-03 9.0222219370791432e-02 0.0000000000000000e+00  -1.4895487881225031e-02 9.0836221091006211e-02 0.0000000000000000e+00  -3.7015817466533651e-02 9.3918958019976378e-02 0.0000000000000000e+00  -8.4323496860248495e-02 2.3785256537687875e-02 0.0000000000000000e+00  -8.5526741960861644e-02 2.1161141898780936e-02 0.0000000000000000e+00  -8.6070378724599245e-02 1.9105004103733905e-02 0.0000000000000000e+00  -3.5602711557607705e-02 -1.0432446241172707e+01 0.0000000000000000e+00  -2.4120418464887296e-02 -1.0793722900661614e+01 0.0000000000000000e+00  -2.3410833002582405e-03 -1.0415795840798239e+01 0.0000000000000000e+00  0.0000000000000000e+00 0.0000000000000000e+00 0.0000000000000000e+00  0.0000000000000000e+00 0.0000000000000000e+00 0.0000000000000000e+00  1.9660213220954417e-02 -1.0427681241394239e+01 0.0000000000000000e+00  1.8337415011817088e-02 -1.0794544925311266e+01 0.0000000000000000e+00  3.4115236695600765e-02 -1.0423017720851604e+01 0.0000000000000000e+00  7.3493409601599419e-02 -1.9130385911206554e-02 0.0000000000000000e+00  7.5829274726894214e-02 -1.4261010791306488e-02 0.0000000000000000e+00  7.7568175594141156e-02 -9.8045330727129787e-03 0.0000000000000000e+00  3.2078424346139729e-02 1.2278852985943733e-01 0.0000000000000000e+00  1.4705665139270595e-02 1.1835719807427549e-01 0.0000000000000000e+00  7.1136131723838485e-04 1.1784908314664155e-01 0.0000000000000000e+00  -1.3041721184203228e-02 1.1881622330031520e-01 0.0000000000000000e+00  -3.2137666618552906e-02 1.2315099248257576e-01 0.0000000000000000e+00  -7.0596814200990510e-02 2.3668386506939861e-02 0.0000000000000000e+00  -7.2884126081301223e-02 1.8490122320958709e-02 0.0000000000000000e+00  -7.4599494050971729e-02 1.3733189532382955e-02 0.0000000000000000e+00  -2.6818020354939770e-02 -1.0449943910454424e+01 0.0000000000000000e+00  -1.9443139042541999e-02 -1.0809489638711476e+01 0.0000000000000000e+00  -3.2806689786606845e-04 -1.0431414773447850e+01 0.0000000000000000e+00  0.0000000000000000e+00 0.0000000000000000e+00 0.0000000000000000e+00  0.0000000000000000e+00 0.0000000000000000e+00 0.0000000000000000e+00  1.6536462198561475e-02 -1.0440190099326989e+01 0.0000000000000000e+00  1.1860059231019467e-02 -1.0807523702809720e+01 0.0000000000000000e+00  2.4763416050748090e-02 -1.0437229095253514e+01 0.0000000000000000e+00  5.2712838081491228e-02 -1.6670340910572866e-02 0.0000000000000000e+00  5.5800525073989797e-02 -9.7845259793119931e-03 0.0000000000000000e+00  5.8440911568396314e-02 -3.1737630340074865e-03 0.0000000000000000e+00  2.3075513425253207e-02 1.4614490382852288e-01 0.0000000000000000e+00  1.0682123206892800e-02 1.4079033337319502e-01 0.0000000000000000e+00  4.1174498045186728e-04 1.3996322680692547e-01 0.0000000000000000e+00  -9.5810555944618441e-03 1.4115518292721402e-01 0.0000000000000000e+00  -2.3744743885644393e-02 1.4648082731741904e-01 0.0000000000000000e+00  -4.9385812688337444e-02 2.1171777330641565e-02 0.0000000000000000e+00  -5.2400846051510228e-02 1.4060213473298144e-02 0.0000000000000000e+00  -5.5000372113620556e-02 7.2360411321821649e-03 0.0000000000000000e+00  -1.3643940612191799e-02 -1.0459422602432198e+01 0.0000000000000000e+00  -1.2179095249457622e-02 -1.0818172744945901e+01 0.0000000000000000e+00  2.8865860935332575e-03 -1.0440287597302827e+01 0.0000000000000000e+00  0.0000000000000000e+00 0.0000000000000000e+00 0.0000000000000000e+00  0.0000000000000000e+00 0.0000000000000000e+00 0.0000000000000000e+00  1.2882752564702895e-02 -1.0445477555681839e+01 0.0000000000000000e+00  4.3672599649609211e-03 -1.0813299880844898e+01 0.0000000000000000e+00  1.3895040680063033e-02 -1.0443706994760753e+01 0.0000000000000000e+00  2.6734167763177812e-02 -1.2247667720689566e-02 0.0000000000000000e+00  3.0223392733866497e-02 -4.1009218594472109e-03 0.0000000000000000e+00  3.3467369573573942e-02 3.9076561990572488e-03 0.0000000000000000e+00  1.1828559301688532e-02 1.6127186432780449e-01 0.0000000000000000e+00  5.7354669391501082e-03 1.5532453710596736e-01 0.0000000000000000e+00  2.3854061122460102e-04 1.5424142456370912e-01 0.0000000000000000e+00  -4.9555768783609341e-03 1.5552136268641648e-01 0.0000000000000000e+00  -1.2833713435808084e-02 1.6149662334127085e-01 0.0000000000000000e+00  -2.3122422683092517e-02 1.6726665069034540e-02 0.0000000000000000e+00  -2.6517017771507959e-02 8.4569929851403200e-03 0.0000000000000000e+00  -2.9708706637404266e-02 3.327