<?xml version="1.0"?>
<VTKFile type="UnstructuredGrid"  version="0.1"  >
<UnstructuredGrid>
<Piece  NumberOfPoints="589" NumberOfCells="1080">
<Points>
<DataArray  type="Float64"  NumberOfComponents="3"  format="ascii">-9 0 0  -8 0 0  -7 0 0  -6 0 0  -5 0 0  -4 0 0  -3 0 0  -2 0 0  -1 0 0  0 0 0  1 0 0  2 0 0  3 0 0  4 0 0  5 0 0  6 0 0  7 0 0  8 0 0  9 0 0  -9 2 0  -8.000000156455004 1.99999986921169 0  -7.000000336210197 1.999999740616747 0  -6.000000573915047 1.999999614280392 0  -5.00000093201364 1.999999484663709 0  -4.000000707867276 1.999999651724044 0  -3.000000443018878 1.999999737009053 0  -2.000000263840347 1.999999784953819 0  -1.000000130386652 1.999999820242836 0  -2.428196904925276e-08 1.999999834573041 0  1.000000079110358 1.999999825859165 0  2.000000202534987 1.999999795012606 0  3.000000365111331 1.999999748839457 0  4.000000579711274 1.99999968104096 0  5.000000860324659 1.999999606753534 0  6.000000528127676 1.999999678242681 0  7.000000308627312 1.99999977389533 0  8.000000143416148 1.99999988363729 0  9 2 0  -9 4 0  -8.000000219709186 3.999999729649982 0  -7.000000440621665 3.999999472199227 0  -6.000000666254949 3.999999241682184 0  -5.000000901727637 3.999999054869228 0  -4.000000658351873 3.999999092532667 0  -3.000000442006733 3.999999217464222 0  -2.000000269871431 3.999999379255294 0  -1.000000136514389 3.999999500040774 0  -3.009172953419958e-08 3.999999549302926 0  1.000000073965279 3.999999517629935 0  2.000000201445196 3.999999419149304 0  3.000000376029579 3.999999277743584 0  4.000000597104533 3.99999912973034 0  5.00000082434063 3.999999047881439 0  6.000000605468569 3.99999925983143 0  7.000000400097705 3.999999491433509 0  8.00000019965214 3.999999740791654 0  9 4 0  -9 6 0  -8.000000278150129 5.999999538491384 0  -7.000000526149933 5.999999096046993 0  -6.000000719237271 5.999998694267734 0  -5.000000847348694 5.999998358388048 0  -4.00000051476492 5.999998491528063 0  -3.000000288754545 5.999998788235166 0  -2.000000174446642 5.999999100322372 0  -1.000000113038994 5.999999283109343 0  -5.587345212950995e-08 5.999999331461882 0  1.000000013046105 5.999999271328809 0  2.000000106796355 5.999999110831824 0  3.000000230170392 5.999998853176617 0  4.000000410398266 5.999998586962107 0  5.000000708164801 5.999998465288466 0  6.000000628804726 5.999998762811948 0  7.0000004718669 5.999999137947587 0  8.000000252714402 5.999999558545361 0  9 6 0  -9 8 0  -8.00000045719222 7.999999271076301 0  -7.000000831328026 7.999998557234695 0  -6.000001032123398 7.99999788325539 0  -5.000000957288327 7.999997298579223 0  -4.000000503207527 7.999997884270703 0  -3.000000414345418 7.999998575401085 0  -2.000000403963317 7.999998946828785 0  -1.000000277039115 7.999999043141111 0  -7.164020482993791e-08 7.999999074600836 0  1.000000121892241 7.999999082710682 0  2.000000216552267 7.999998926776109 0  3.000000206959236 7.999998621678751 0  4.000000346073721 7.999998031155122 0  5.000000843389733 7.99999739988599 0  6.000000962451809 7.999997955344278 0  7.000000792494643 7.999998602613523 0  8.000000440024087 7.999999292871967 0  9 8 0  -9 10 0  -8.000000968458924 9.999998943333907 0  -7.000001829867789 9.999997858974682 0  -6.000002447529865 9.999996715032912 0  -5.000002612644716 9.999995469452427 0  -4.000002039690195 9.99999701781428 0  -3.000001828323402 9.999998397142067 0  -2.000001317113015 9.999998356390881 0  -1.000000668181721 9.999998342910198 0  -1.27680256450862e-07 9.999998342074186 0  1.000000410803581 9.999998327909818 0  2.000001042573714 9.999998269991798 0  3.000001765674269 9.999998535491283 0  4.000001983772866 9.999997211620208 0  5.000002579127494 9.999995585395594 0  6.000002452174082 9.999996780634483 0  7.000001843174806 9.999997895323768 0  8.000000977546975 9.999998959721076 0  9 10 0  -9 12 0  -8.000001907922263 11.99999872636547 0  -7.000003803389101 11.99999739904712 0  -6.000005673114353 11.99999595336875 0  -5.000007505377905 11.99999429879973 0  -4.000007355252325 11.99999654401104 0  -3.000007376656971 11.99999876497259 0  -2.000004834720224 11.99999848284219 0  -1.00000237815463 11.99999833855157 0  2.896884265251218e-08 11.99999830742621 0  1.000002461449688 11.99999838966413 0  2.000005004229346 11.99999862055356 0  3.00000773202797 11.99999909539501 0  4.000007761866936 11.99999666709713 0  5.000007819085885 11.99999423656091 0  6.000005870072903 11.99999592812638 0  7.000003920365345 11.9999973892041 0  8.0000019627436 11.99999872304519 0  9 12 0  -9 14 0  -8.000002897201604 13.99999872413345 0  -7.00000587986796 13.99999741256151 0  -6.000009048530984 13.99999602726993 0  -5.000012538494934 13.99999452664057 0  -4.000012671095257 13.9999964335129 0  -3.00001245123735 13.9999983859496 0  -2.000008010855713 13.99999805793775 0  -1.00000389036493 13.99999788153412 0  8.418882646796527e-08 13.99999781932705 0  1.000004070907748 13.99999785681478 0  2.000008225823993 13.99999799531158 0  3.000012713128502 13.99999824497181 0  4.000012980613692 13.99999635356311 0  5.000012897899046 13.999994494287 0  6.000009290733352 13.99999599757457 0  7.000006029203139 13.99999739203396 0  8.000002968421642 13.99999871391603 0  9 14 0  -9 16 0  -8.000003544615934 15.99999886472315 0  -7.000007212350167 15.99999772095524 0  -6.00001113872736 15.99999656252316 0  -5.000015484969483 15.99999538892767 0  -4.000015681927421 15.99999625461566 0  -3.000015375420481 15.99999710332283 0  -2.000009907445663 15.99999702660502 0  -1.000004818835136 15.99999696773373 0  9.0747821853189e-08 15.99999693245147 0  1.000005007583589 15.99999691993192 0  2.000010117881321 15.99999692541862 0  3.000015622368414 15.99999693898247 0  4.000015939754308 15.99999611567094 0  5.000015748168839 15.99999529363616 0  6.000011328831532 15.99999650233611 0  7.000007335034093 15.99999768517396 0  8.000003604653235 15.99999884797958 0  9 16 0  -9 18 0  -8.000003699552487 17.99999903927661 0  -7.00000751024937 17.99999808800514 0  -6.000011549449576 17.99999715842918 0  -5.000015946718652 17.9999962686669 0  -4.000016122190743 17.99999605162155 0  -3.000015864557126 17.99999583671824 0  -2.000010286594638 17.99999592393517 0  -1.000005031202496 17.99999595957788 0  6.829543276827284e-08 17.99999595452583 0  1.000005170418676 17.99999591102468 0  2.00001043319696 17.9999958232172 0  3.000016021680188 17.99999567644866 0  4.000016278296642 17.99999593314212 0  5.000016099192705 17.99999619805628 0  6.000011664754676 17.99999711054524 0  7.000007587189321 17.99999805844222 0  8.000003737969307 17.99999902518345 0  9 18 0  -9 20 0  -8.000003409908851 19.99999917602178 0  -7.000006894129487 19.99999836827197 0  -6.000010527879618 19.99999759507891 0  -5.000014387730065 19.99999687903026 0  -4.000014499525494 19.99999586738942 0  -3.000014331838615 19.99999485969703 0  -2.000009375474512 19.99999502756032 0  -1.00000461999067 19.99999511418781 0  3.534200361947279e-08 19.99999513039525 0  1.000004690639683 19.99999507934116 0  2.000009445705802 19.99999495685801 0  3.000014400351243 19.99999475128987 0  4.000014559666467 19.99999580095335 0  5.000014443159987 19.9999968553766 0  6.000010573177295 19.9999975771206 0  7.000006925957584 19.99999835633247 0  8.000003426280022 19.99999917008534 0  9 20 0  -9 22 0  -8.000002823017223 21.99999924785278 0  -7.000005679888616 21.99999851031082 0  -6.000008601902661 21.99999780314965 0  -5.000011614721627 21.99999714447948 0  -4.000011661769361 21.99999571196399 0  -3.000011591932519 21.9999942847575 0  -2.000007660841685 21.99999445612622 0  -1.000003808177947 21.99999455047576 0  2.528847795353435e-09 21.99999457530885 0  1.000003811791333 21.9999945333716 0  2.000007659906451 21.99999442283623 0  3.000011582697859 21.99999423738533 0  4.000011644070733 21.99999569869001 0  5.000011592993673 21.99999716287725 0  6.000008590542673 21.99999781382308 0  7.000005674554565 21.99999851605777 0  8.000002821000036 21.99999925033946 0  9 22 0  -9 24 0  -8.000002100709285 23.99999926126245 0  -7.000004205076194 23.99999853082587 0  -6.000006312703468 23.99999781725555 0  -5.000008414651877 23.99999712960066 0  -4.00000842139203 23.9999955957502 0  -3.000008428359056 23.99999406803279 0  -2.000005632505993 23.99999419276695 0  -1.000002828539999 23.99999426482791 0  -2.45069428430857e-08 23.99999428730217 0  1.000002777535226 23.99999426179288 0  2.00000557540761 23.99999418847457 0  3.000008360706156 23.9999940662611 0  4.000008348496542 23.99999561838319 0  5.000008341099464 23.99999717294183 0  6.00000626205398 23.99999784536919 0  7.000004173416409 23.99999854759464 0  8.000002085502606 23.99999926907783 0  9 24 0  -9 26 0  -8.000001363771958 25.99999924146815 0  -7.000002717218099 25.99999848387572 0  -6.00000404621911 25.99999772769933 0  -5.000005328740968 25.99999697242337 0  -4.00000532892909 25.99999552318046 0  -3.000005380239592 25.99999408000214 0  -2.000003636626063 25.99999414009941 0  -1.000001849172101 25.99999417752601 0  -4.357922925370085e-08 25.99999419122881 0  1.000001759959906 25.99999418144942 0  2.000003541207546 25.99999414969261 0  3.000005274333203 25.99999409892247 0  4.000005222140948 25.99999555700652 0  5.000005224973598 25.99999701771016 0  6.000003971932701 25.99999775772267 0  7.000002669383296 25.99999850210029 0  8.000001340361441 25.99999925006017 0  9 26 0  -9 28 0  -8.000000668139233 27.99999921791617 0  -7.000001327141218 27.99999843126141 0  -6.000001965620813 27.99999763454134 0  -5.000002567526672 27.99999682033581 0  -4.000002591247598 27.99999549357205 0  -3.000002656326895 27.99999417220806 0  -2.00000181611051 27.99999417811422 0  -1.00000094236122 27.99999418511899 0  -5.443672914711088e-08 27.99999418908397 0  1.000000831551599 27.99999418901542 0  2.000001699497649 27.99999418696369 0  3.000002530067318 27.99999418821158 0  4.000002467596399 27.99999551614679 0  5.000002449657059 27.99999684745638 0  6.000001879845255 27.99999765261559 0  7.000001271240531 27.99999844227694 0  8.000000640579897 27.99999922312271 0  9 28 0  -9
[...]
<PointData  Vectors="f_44-0"> 
<DataArray  type="Float64"  Name="f_44-0"  NumberOfComponents="3" format="ascii">0.0000000000000000e+00 0.0000000000000000e+00 0.0000000000000000e+00  -1.3581157844876038e-09 -1.4936034489330551e-02 0.0000000000000000e+00  1.2144422085230174e-09 -1.4563356651812579e-02 0.0000000000000000e+00  -5.7385934522963237e-10 -1.0765891350752966e-02 0.0000000000000000e+00  0.0000000000000000e+00 0.0000000000000000e+00 0.0000000000000000e+00  0.0000000000000000e+00 0.0000000000000000e+00 0.0000000000000000e+00  0.0000000000000000e+00 0.0000000000000000e+00 0.0000000000000000e+00  0.0000000000000000e+00 0.0000000000000000e+00 0.0000000000000000e+00  0.0000000000000000e+00 0.0000000000000000e+00 0.0000000000000000e+00  0.0000000000000000e+00 0.0000000000000000e+00 0.0000000000000000e+00  0.0000000000000000e+00 0.0000000000000000e+00 0.0000000000000000e+00  0.0000000000000000e+00 0.0000000000000000e+00 0.0000000000000000e+00  0.0000000000000000e+00 0.0000000000000000e+00 0.0000000000000000e+00  0.0000000000000000e+00 0.0000000000000000e+00 0.0000000000000000e+00  0.0000000000000000e+00 0.0000000000000000e+00 0.0000000000000000e+00  -1.1053040766784778e-09 -1.4986537006870727e-02 0.0000000000000000e+00  1.5563832335706493e-09 -1.4588034261866062e-02 0.0000000000000000e+00  -3.9477146774667104e-10 -1.0743295064753241e-02 0.0000000000000000e+00  0.0000000000000000e+00 0.0000000000000000e+00 0.0000000000000000e+00  0.0000000000000000e+00 0.0000000000000000e+00 0.0000000000000000e+00  -2.9190295752685647e-06 -1.2512226384817282e-02 0.0000000000000000e+00  5.6448310394246580e-05 -1.4542490442009641e-02 0.0000000000000000e+00  9.1840546380854502e-05 -1.2515379143874140e-02 0.0000000000000000e+00  -2.5553414450902828e-05 -4.3041751213383738e-05 0.0000000000000000e+00  -9.7450388698172878e-06 -4.2193697592560967e-05 0.0000000000000000e+00  -5.8762197796159374e-06 -3.5989766131032940e-05 0.0000000000000000e+00  1.7720133918258295e-06 -2.5743111671932288e-05 0.0000000000000000e+00  4.2270794977355424e-06 -2.0461024607305640e-05 0.0000000000000000e+00  4.8245932148785702e-06 -1.9252305532520130e-05 0.0000000000000000e+00  5.0872940131735771e-06 -2.2317432645526044e-05 0.0000000000000000e+00  7.2009116106380279e-06 -2.8499765713067604e-05 0.0000000000000000e+00  1.1899664036121402e-05 -3.7345391146917775e-05 0.0000000000000000e+00  1.9758525025954437e-05 -4.3763814805243358e-05 0.0000000000000000e+00  2.5814353717260272e-05 -7.3064583443368248e-05 0.0000000000000000e+00  4.0767066971219821e-05 -1.2549087379202068e-02 0.0000000000000000e+00  9.9758095160668817e-05 -1.4565139197000473e-02 0.0000000000000000e+00  1.3789262349303211e-04 -1.2518652574607462e-02 0.0000000000000000e+00  0.0000000000000000e+00 0.0000000000000000e+00 0.0000000000000000e+00  0.0000000000000000e+00 0.0000000000000000e+00 0.0000000000000000e+00  1.2911623066425597e-05 -1.2482022595944704e-02 0.0000000000000000e+00  -1.9725132177819740e-05 -1.4390913750723745e-02 0.0000000000000000e+00  7.9995657670754914e-06 -1.2557281861690493e-02 0.0000000000000000e+00  -6.8240555083639301e-05 -8.1717142470414146e-05 0.0000000000000000e+00  -4.1851544750132647e-05 -6.5917788883544765e-05 0.0000000000000000e+00  -2.5295900777894821e-05 -4.2281674904164440e-05 0.0000000000000000e+00  -1.3043687305963369e-05 -3.1862957215777780e-05 0.0000000000000000e+00  -8.8632933284497947e-06 -2.7671689443327207e-05 0.0000000000000000e+00  -5.6095874180027761e-06 -2.8669475232181216e-05 0.0000000000000000e+00  -9.0827244876901058e-07 -3.3181908076450738e-05 0.0000000000000000e+00  8.3044204615840818e-06 -4.3711825010437884e-05 0.0000000000000000e+00  1.8566743783992477e-05 -5.6767887809424888e-05 0.0000000000000000e+00  3.2378152468818889e-05 -6.3863944291893195e-05 0.0000000000000000e+00  5.0961013065863870e-05 -5.3319354200546648e-05 0.0000000000000000e+00  6.9931585542266087e-05 -1.2517370932053230e-02 0.0000000000000000e+00  4.0607257758120240e-05 -1.4410205495841252e-02 0.0000000000000000e+00  6.7716191579260905e-05 -1.2555442822784389e-02 0.0000000000000000e+00  0.0000000000000000e+00 0.0000000000000000e+00 0.0000000000000000e+00  0.0000000000000000e+00 0.0000000000000000e+00 0.0000000000000000e+00  8.8559579558973811e-06 -1.2478747776332523e-02 0.0000000000000000e+00  -3.6194645460083459e-05 -1.4344107076233356e-02 0.0000000000000000e+00  -2.7329268569432514e-05 -1.2537946334837985e-02 0.0000000000000000e+00  -6.6671058737164301e-05 -1.1755037283931895e-04 0.0000000000000000e+00  -3.6484493826419337e-05 -9.0410497675668861e-05 0.0000000000000000e+00  -1.9812289636758675e-05 -6.8192749721773094e-05 0.0000000000000000e+00  -1.8551423327631398e-05 -6.0684636769810068e-05 0.0000000000000000e+00  -1.3231026307014299e-05 -5.2353180365790938e-05 0.0000000000000000e+00  -5.6919513997087975e-06 -4.3334270610644938e-05 0.0000000000000000e+00  4.0914239527532004e-07 -4.3624998572700285e-05 0.0000000000000000e+00  1.7156588513930528e-06 -5.7860810151512748e-05 0.0000000000000000e+00  1.0278467725440444e-05 -8.1221772033708217e-05 0.0000000000000000e+00  3.2091345292381223e-05 -1.1599848858583691e-04 0.0000000000000000e+00  4.9859771259172689e-05 -1.4003149778941829e-04 0.0000000000000000e+00  9.4277449236585708e-05 -1.2521799113912005e-02 0.0000000000000000e+00  5.4225802022466950e-05 -1.4352728640470238e-02 0.0000000000000000e+00  5.5388795251677253e-05 -1.2507770019489023e-02 0.0000000000000000e+00  0.0000000000000000e+00 0.0000000000000000e+00 0.0000000000000000e+00  0.0000000000000000e+00 0.0000000000000000e+00 0.0000000000000000e+00  -2.3245777491237897e-05 -1.2410542337934909e-02 0.0000000000000000e+00  -9.3071868764110460e-05 -1.4294494737067332e-02 0.0000000000000000e+00  -9.7035123117810009e-05 -1.2528073537345769e-02 0.0000000000000000e+00  -1.5063171099977422e-04 -2.1879613578025731e-04 0.0000000000000000e+00  -1.0318606719607211e-04 -1.5273690837314010e-04 0.0000000000000000e+00  -5.8714307861031184e-05 -1.2463427344642280e-04 0.0000000000000000e+00  -5.1531975431456458e-05 -1.0620095266544351e-04 0.0000000000000000e+00  -2.1245210791569272e-05 -8.1053756275603067e-05 0.0000000000000000e+00  5.3937502898086034e-06 -7.5666796747157782e-05 0.0000000000000000e+00  3.2013908756084611e-05 -9.1508827464526645e-05 0.0000000000000000e+00  4.9141517552600246e-05 -8.3304142311080496e-05 0.0000000000000000e+00  1.0426810257361586e-04 -1.2206258028601500e-04 0.0000000000000000e+00  1.1437991631769036e-04 -2.0825778357078301e-04 0.0000000000000000e+00  1.2344699190271416e-04 -2.6301495534778835e-04 0.0000000000000000e+00  1.5216536758790833e-04 -1.2498543422156736e-02 0.0000000000000000e+00  9.9161155159661305e-05 -1.4289730357406062e-02 0.0000000000000000e+00  7.5556184311513486e-05 -1.2438641463627723e-02 0.0000000000000000e+00  0.0000000000000000e+00 0.0000000000000000e+00 0.0000000000000000e+00  0.0000000000000000e+00 0.0000000000000000e+00 0.0000000000000000e+00  -9.0594406938632104e-05 -1.2251030840918019e-02 0.0000000000000000e+00  -2.2694534833369697e-04 -1.4154425993137877e-02 0.0000000000000000e+00  -2.8652159726065887e-04 -1.2485554820095899e-02 0.0000000000000000e+00  -3.8109070947406083e-04 -3.2758173363102086e-04 0.0000000000000000e+00  -2.9695912019164279e-04 -1.9279727037149871e-04 0.0000000000000000e+00  -2.4713152186028859e-04 -7.5281825462494121e-05 0.0000000000000000e+00  -1.2459895793044860e-04 -1.9275259620127780e-04 0.0000000000000000e+00  -5.1643168234485940e-05 -1.4913053062852287e-04 0.0000000000000000e+00  1.2965638407694744e-05 -1.4000979809865148e-04 0.0000000000000000e+00  7.5174588829494897e-05 -1.4303469831932264e-04 0.0000000000000000e+00  1.4453606572004869e-04 -1.5731929785478731e-04 0.0000000000000000e+00  2.6532407373545101e-04 -1.1845805584707686e-04 0.0000000000000000e+00  3.0092960228569600e-04 -2.6322123909621603e-04 0.0000000000000000e+00  4.0521872172147511e-04 -4.5959414779495983e-04 0.0000000000000000e+00  3.2619569778456151e-04 -1.2416947338187065e-02 0.0000000000000000e+00  2.1388162812566497e-04 -1.4148879786352497e-02 0.0000000000000000e+00  1.2696879481674048e-04 -1.2300671442590878e-02 0.0000000000000000e+00  0.0000000000000000e+00 0.0000000000000000e+00 0.0000000000000000e+00  0.0000000000000000e+00 0.0000000000000000e+00 0.0000000000000000e+00  -1.9224556662310739e-04 -1.1934933347428510e-02 0.0000000000000000e+00  -4.4166986754888663e-04 -1.3830543084652617e-02 0.0000000000000000e+00  -6.2794161160238356e-04 -1.2256122007250597e-02 0.0000000000000000e+00  -7.4372515129056600e-04 -5.2034967468398243e-04 0.0000000000000000e+00  -7.6880901160241441e-04 -2.4548974091494105e-04 0.0000000000000000e+00  -8.2020573690643026e-04 7.2273880482061193e-05 0.0000000000000000e+00  -5.2523979321622680e-04 -6.1179997598341095e-04 0.0000000000000000e+00  -2.2902101605785938e-04 -7.1385051046223957e-04 0.0000000000000000e+00  5.9583533343297697e-05 -7.2034703628957235e-04 0.0000000000000000e+00  3.4891912495204746e-04 -6.5837235449917150e-04 0.0000000000000000e+00  6.1138536033241678e-04 -4.6962048286712586e-04 0.0000000000000000e+00  7.2769319917847088e-04 -3.4158577201861517e-06 0.0000000000000000e+00  7.7624699550693055e-04 -2.6860895777556317e-04 0.0000000000000000e+00  8.2854220045058531e-04 -4.9890969026203803e-04 0.0000000000000000e+00  6.5378072646966922e-04 -1.2187142905212160e-02 0.0000000000000000e+00  4.1424777429627897e-04 -1.3840338566154506e-02 0.0000000000000000e+00  2.1550977149611202e-04 -1.2025104866423003e-02 0.0000000000000000e+00  0.0000000000000000e+00 0.0000000000000000e+00 0.0000000000000000e+00  0.0000000000000000e+00 0.0000000000000000e+00 0.0000000000000000e+00  -3.0289333994502828e-04 -1.1419696218057131e-02 0.0000000000000000e+00  -6.8173035983113252e-04 -1.3258358145224955e-02 0.0000000000000000e+00  -1.0192888590984037e-03 -1.1770873704864432e-02 0.0000000000000000e+00  -1.2671094080280566e-03 -5.7720745431110137e-04 0.0000000000000000e+00  -1.2945706376322589e-03 -3.2096757717712675e-04 0.0000000000000000e+00  -1.2875703545320546e-03 -9.8735342934955738e-05 0.0000000000000000e+00  -8.8003739503181582e-04 -1.2438595503333832e-03 0.0000000000000000e+00  -4.1019668641507998e-04 -1.4738422763019821e-03 0.0000000000000000e+00  5.8017063398267820e-05 -1.5115109459363282e-03 0.0000000000000000e+00  5.2384844936532375e-04 -1.4327595168238071e-03 0.0000000000000000e+00  9.8486536556916405e-04 -1.0996203759878612e-03 0.0000000000000000e+00  1.3002475389904402e-03 1.0777282255707209e-05 0.0000000000000000e+00  1.3373092507982956e-03 -2.4597412275035354e-04 0.0000000000000000e+00  1.3382240983240488e-03 -5.0902782201366233e-04 0.0000000000000000e+00  1.0485391081541326e-03 -1.1671582811046990e-02 0.0000000000000000e+00  6.5609793996626196e-04 -1.3285077248328831e-02 0.0000000000000000e+00  3.2361131832661015e-04 -1.1555615443942110e-02 0.0000000000000000e+00  0.0000000000000000e+00 0.0000000000000000e+00 0.0000000000000000e+00  0.0000000000000000e+00 0.0000000000000000e+00 0.0000000000000000e+00  -3.9023383037042317e-04 -1.0718460632925648e-02 0.0000000000000000e+00  -8.7371040494341103e-04 -1.2449230208741674e-02 0.0000000000000000e+00  -1.3335111597928685e-03 -1.1039554098242775e-02 0.0000000000000000e+00  -1.7311296611021672e-03 -5.2413072575197939e-04 0.0000000000000000e+00  -1.7563498127260067e-03 -3.5192945015051459e-04 0.0000000000000000e+00  -1.7306313394595358e-03 -1.7913191579428474e-04 0.0000000000000000e+00  -1.1783651760001422e-03 -2.2155500644577522e-03 0.0000000000000000e+00  -5.6513956378189637e-04 -2.5299097491018386e-03 0.0000000000000000e+00  4.3204197371500154e-05 -2.5792841064332449e-03 0.0000000000000000e+00  6.5304982870269073e-04 -2.4969772005572531e-03 0.0000000000000000e+00  1.2726719280058451e-03 -2.0345270209819496e-03 0.0000000000000000e+00  1.7554716318477863e-03 -8.2665368663315122e-05 0.0000000000000000e+00  1.7862536655096903e-03 -2.5406777716591595e-04 0.0000000000000000e+00  1.7663281519906793e-03 -4.1567565977241629e-04 0.0000000000000000e+00  1.3689989197249522e-03 -1.0910873234018901e-02 0.0000000000000000e+00  8.6167198853304454e-04 -1.2479208447257131e-02 0.0000000000000000e+00  4.1862737271946594e-04 -1.0887124851024672e-02 0.0000000000000000e+00  0.0000000000000000e+00 0.0000000000000000e+00 0.0000000000000000e+00  0.0000000000000000e+00 0.0000000000000000e+00 0.0000000000000000e+00  -4.3363479544585395e-04 -9.8944151758104323e-03 0.0000000000000000e+00  -9.7126477490405250e-04 -1.1481513722532194e-02 0.0000000000000000e+00  -1.4951746783296775e-03 -1.0148138343722180e-02 0.0000000000000000e+00  -1.9941582028139542e-03 -4.1696184895669122e-04 0.0000000000000000e+00  -2.0115461433582627e-03 -3.5632583214011089e-04 0.0000000000000000e+00  -1.9743400428925131e-03 -2.9848457633339405e-04 0.0000000000000000e+00  -1.3496170322456341e-03 -3.3674761432620900e-03 0.0000000000000000e+00  -6.6167824541366808e-04 -3.8074873114215210e-03 0.0000000000000000e+00  2.2988740096327634e-05 -3.8583839115265482e-03 0.0000000000000000e+00  7.0948275749892751e-04 -3.7708081129709543e-03 0.0000000000000000e+00  1.4118238109431358e-03 -3.1689925722195099e-03 0.0000000000000000e+00  2.0109319034635805e-03 -2.1819642418522214e-04 0.0000000000000000e+00  2.0341628285325585e-03 -2.7278680212661373e-04 0.0000000000000000e+00  2.0028888009278089e-03 -3.2505353609309868e-04 0.0000000000000000e+00  1.5416098668677169e-03 -9.9903023800549662e-03 0.0000000000000000e+00  9.7721913143282934e-04 -1.1503336448206739e-02 0.0000000000000000e+00  4.7468579269269168e-04 -1.0075400703786803e-02 0.0000000000000000e+00  0.0000000000000000e+00 0.0000000000000000e+00 0.0000000000000000e+00  0.0000000000000000e+00 0.0000000000000000e+00 0.0000000000000000e+00  -4.2791878781050667e-04 -9.0347333469337817e-03 0.0000000000000000e+00  -9.6284085514362547e-04 -1.0462417430337828e-02 0.0000000000000000e+00  -1.4881021365382356e-03 -9.2060403602117133e-03 0.0000000000000000e+00  -2.0243420821366306e-03 -3.0286506805137859e-04 0.0000000000000000e+00  -2.0352748397094987e-03 -3.5280300887798207e-04 0.0000000000000000e+00  -2.0009476974384285e-03 -4.0280252726143244e-04 0.0000000000000000e+00  -1.3652354804667914e-03 -4.5744925650912146e-03 0.0000000000000000e+00  -6.8251492048640233e-04 -5.1599172006665459e-03 0.0000000000000000e+00  1.8579390432165659e-06 -5.2141073315862653e-03 0.0000000000000000e+00  6.8851726891805724e-04 -5.1185906852720961e-03 0.0000000000000000e+00  1.3934691151606293e-03 -4.3695414171946046e-03 0.0000000000000000e+00  2.0320198101463028e-03 -3.5470211281204408e-04 0.0000000000000000e+00  2.0462188981636444e-03 -2.9930299545055390e-04 0.0000000000000000e+00  2.0148847838880306e-03 -2.4364691672528122e-04 0.0000000000000000e+00  1.5447220145040263e-03 -9.0352233572723352e-03 0.0000000000000000e+00  9.8646812106150273e-04 -1.0470593696542459e-02 0.0000000000000000e+00  4.8257755572829990e-04 -9.2078772488001469e-03 0.0000000000000000e+00  2.3424730220587642e-11 5.0775952995277564e-12 0.0000000000000000e+00  0.0000000000000000e+00 0.0000000000000000e+00 0.0000000000000000e+00  -3.7871049014674685e-04 -8.2259152368772803e-03 0.0000000000000000e+00  -8.6069249246560880e-04 -9.4969807048727803e-03 0.0000000000000000e+00  -1.3334081933534048e-03 -8.3148338446865783e-03 0.0000000000000000e+00  -1.8453109036963627e-03 -2.0800157958456584e-04 0.0000000000000000e+00  -1.8520661606836425e-03 -3.4644898731697217e-04 0.0000000000000000e+00  -1.8261324392562540e-03 -4.8336353036298161e-04 0.0000000000000000e+00  -1.2441876107150522e-03 -5.7009136931224147e-03 0.0000000000000000e+00  -6.3397532737375110e-04 -6.4438946278258420e-03 0.0000000000000000e+00  -1.7226829191451068e-05 -6.5061014621422691e-03 0.0000000000000000e+00  6.0239326839258605e-04 -6.4011606615466650e-03 0.0000000000000000e+00  1.2408648248824013e-03 -5.5091531260036833e-03 0.0000000000000000e+00  1.8438221297101714e-03 -4.6709575554312622e-04 0.0000000000000000e+00  1.8515092471712148e-03 -3.2364945083504504e-04 0.0000000000000000e+00  1.8269431155448817e-03 -1.8120808708355611e-04 0.0000000000000000e+00  1.3979452277514944e-03 -8.1492680369015004e-03 0.0000000000000000e+00  8.9902743769053458e-04 -9.4927007248736366e-03 0.0000000000000000e+00  4.4521427009280580e-04 -8.3759606242307105e-03 0.0000000000000000e+00  0.0000000000000000e+00 0.0000000000000000e+00 0.0000000000000000e+00  0.0000000000000000e+00 0.0000000000000000e+00 0.0000000000000000e+00  -2.9665086487394061e-04 -7.5389037005091806e-03 0.0000000000000000e+00  -6.8797438530835363e-04 -8.6704973675200865e-03 0.0000000000000000e+00  -1.0685446835742192e-03 -7.5527490247764076e-03 0.0000000000000000e+00  -1.5054883991169569e-03 -1.4208384048055119e-04 0.0000000000000000e+00  -1.5105568714569610e-03 -3.4218628115179745e-04 0.0000000000000000e+00  -1.4952670530862802e-03 -5.4018642491958336e-04 0.0000000000000000e+00  -1.0190772999421911e-03 -6.6476026859943228e-03 0.0000000000000000e+00  -5.3123526301494925e-04 -7.5424223932223644e-03 0.0000000000000000e+00  -3.2572298200781023e-05 -7.6170564114004030e-03 0.0000000000000000e+00  4.6956361936850125e-04 -7.5036041443930146e-03 0.0000000000000000e+00  9.9028337073184562e-04 -6.4870261887576691e-03 0.0000000000000000e+00  1.4964442528665614e-03 -5.4554814826664405e-04 0.0000000000000000e+00  1.5001659162174920e-03 -3.4147381644289063e-04 0.0000000000000000e+00  1.4840436273687392e-03 -1.3903767388527495e-04 0.0000000000000000e+00  1.1387864566459404e-03 -7.4106121862907142e-03 0.0000000000000000e+00  7.3739642573561297e-04 -8.6587690626131492e-03 0.0000000000000000e+00  3.7225326797977950e-04 -7.6561866208143727e-03 0.0000000000000000e+00  0.0000000000000000e+00 0.0000000000000000e+00 0.0000000000000000e+00  0.0000000000000000e+00 0.0000000000000000e+00 0.0000000000000000e+00  -1.9300541151652214e-04 -7.0240219702684082e-03 0.0000000000000000e+00  -4.6905556113116650e-04 -8.0430079537041413e-03 0.0000000000000000e+00  -7.3208736810666415e-04 -6.9717267288176921e-03 0.0000000000000000e+00  -1.0577065863758945e-03 -1.0438207466422873e-04 0.0000000000000000e+00  -1.0630809372095332e-03 -3.4190716778546105e-04 0.0000000000000000e+00  -1.0575395257696651e-03 -5.7747277483783082e-04 0.0000000000000000e+00  -7.2487995727170461e-04 -7.3497678006211294e-03 0.0000000000000000e+00  -3.9117267968855995e-04 -8.3736419687934060e-03 0.0000000000000000e+00  -4.3506715222112343e-05 -8.4628695272254452e-03 0.0000000000000000e+00  3.0813378188797276e-04 -8.3441255658197686e-03 0.0000000000000000e+00  6.7789602122869815e-04 -7.2344963136653636e-03 0.0000000000000000e+00  1.0435839350668040e-03 -5.9111210880759702e-04 0.0000000000000000e+00  1.0452673951491262e-03 -3.5094672657799529e-04 0.0000000000000000e+00  1.0366244524192556e-03 -1.1223931211061012e-04 0.0000000000000000e+00  8.0591795628313478e-04 -6.8680602241164073e-03 0.0000000000000000e+00  5.2595566089817781e-04 -8.0302141909997845e-03 0.0000000000000000e+00  2.7479961126789806e-04 -7.1035263433743738e-03 0.0000000000000000e+00  0.0000000000000000e+00 0.0000000000000000e+00 0.0000000000000000e+00  0.0000000000000000e+00 0.0000000000000000e+00 0.0000000000000000e+00  -7.7271002363559028e-05 -6.7124775575216015e-03 0.0000000000000000e+00  -2.2423618069085217e-04 -7.6516606714463753e-03 0.0000000000000000e+00  -3.5555207937806974e-04 -6.6017724002988311e-03 0.0000000000000000e+00  -5.4742142480267012e-04 -8.8393350804648370e-05 0.0000000000000000e+00  -5.5381996333591624e-04 -3.4502405303736327e-04 0.0000000000000000e+00  -5.5550753093825029e-04 -6.0039617385199595e-04 0.0000000000000000e+00  -3.9040116210083630e-04 -7.7713674199225901e-03 0.0000000000000000e+00  -2.2815895023090528e-04 -8.8878205453566811e-03 0.0000000000000000e+00  -4.9981223318686102e-05 -8.9909062707284517e-03 0.0000000000000000e+00  1.3250437476740933e-04 -8.8718362517116491e-03 0.0000000000000000e+00  3.3265535510485942e-04 -7.7108886522249363e-03 0.0000000000000000e+00  5.3111698843042040e-04 -6.1044729662241648e-04 0.0000000000000000e+00  5.314