<?xml version="1.0"?>
<VTKFile type="UnstructuredGrid"  version="0.1"  >
<UnstructuredGrid>
<Piece  NumberOfPoints="589" NumberOfCells="1080">
<Points>
<DataArray  type="Float64"  NumberOfComponents="3"  format="ascii">-9 0 0  -8 0 0  -7 0 0  -6 0 0  -5 0 0  -4 0 0  -3 0 0  -2 0 0  -1 0 0  0 0 0  1 0 0  2 0 0  3 0 0  4 0 0  5 0 0  6 0 0  7 0 0  8 0 0  9 0 0  -9 2 0  -8.000005626730715 1.999991562111015 0  -7.000011783570442 1.999984171135933 0  -6.00001974235531 1.999978678220483 0  -5.000032431953624 1.999975460483622 0  -4.000019163943796 1.999981662742473 0  -3.000005555959068 1.999987574458521 0  -1.999998944730078 1.999993137723545 0  -0.9999978907189391 1.999997540568702 0  -3.14526747314307e-07 1.999999488767822 0  0.9999969919177836 1.999998195294992 0  1.999997137487802 1.999993991078708 0  3.000002198506656 1.999988856433892 0  4.000012789262688 1.999983433670958 0  5.000028113636347 1.999981438804034 0  6.000016884520729 1.999982071037759 0  7.000010023833534 1.999986114276331 0  8.000004786582029 1.999992468185128 0  9 2 0  -9 4 0  -8.000009132929145 3.999978936970226 0  -7.000016359378349 3.999960750334768 0  -6.000020561415455 3.999948255890881 0  -5.000021961554516 3.999944134109749 0  -4.000002628160227 3.999947118348932 0  -2.999989690423675 3.999963836812015 0  -1.999986367282415 3.99998557208397 0  -0.9999913870847099 4.000003071600027 0  -9.468038003694236e-07 4.000010169514846 0  0.9999892795571492 4.000004782875057 0  1.999983528216273 3.999990115728671 0  2.999986032301435 3.999970280886851 0  3.999998081765493 3.999950428713275 0  5.000016615151445 3.99994410413529 0  6.000016295259544 3.999950498309974 0  7.00001355383263 3.999962986288012 0  8.00000777033009 3.99998022517909 0  9 4 0  -9 6 0  -8.000020264528789 5.999954808237723 0  -7.000033032786064 5.999914562604789 0  -6.000032588065991 5.999884344681338 0  -5.000017298664714 5.999869015886554 0  -3.999979528432943 5.999893882087329 0  -2.999962409119918 5.999945650999347 0  -1.999969341080542 5.99999988315753 0  -0.9999864132855507 6.000030009520703 0  -3.651588194917892e-06 6.000036096480954 0  0.9999808740661563 6.000026461299123 0  1.999969070593916 5.99999972831441 0  2.999964575700702 5.999954552133578 0  3.99997334428617 5.999907784932713 0  5.000005312332331 5.999884816662184 0  6.000025392093234 5.999894552049712 0  7.000029251600579 5.999920856563773 0  8.000018700618172 5.999957840266988 0  9 6 0  -9 8 0  -8.00006137564422 7.99991090416396 0  -7.000102554586571 7.999828273903012 0  -6.000103991388426 7.999760886685766 0  -5.000049011970075 7.999723196743863 0  -3.999975737954856 7.9998376879554 0  -2.999989532912812 7.999972173170846 0  -2.000017319683244 8.000037592687235 0  -1.000019871795709 8.000044882806245 0  -3.637467968486098e-06 8.000046979467839 0  1.000008527191881 8.000053551692751 0  2.000003502603389 8.000026515112488 0  2.999971770836374 7.999980510241509 0  3.999960974140647 7.999866190575057 0  5.000032462202512 7.99973716304504 0  6.000099362913788 7.999772342747869 0  7.000102583313927 7.999836020341917 0  8.000062222618732 7.999914758957734 0  9 8 0  -9 10 0  -8.000183227005936 9.99984117525625 0  -7.000330994709146 9.99968107153525 0  -6.000401012343363 9.99951873528409 0  -5.000334422423426 9.999353979582235 0  -4.000217983207736 9.999724229078359 0  -3.000237581799679 10.00004250550862 0  -2.000190855264813 9.999987168667682 0  -1.000088824254237 9.999969415808756 0  -1.385892309147277e-05 9.999965089120687 0  1.000060403624603 9.999965472355871 0  2.000159198834535 9.99996367867268 0  3.000246146976191 10.00007758784627 0  4.000235195808094 9.999778509690483 0  5.000366489597756 9.999383760088151 0  6.000427956327059 9.999536217782925 0  7.000350177311423 9.999690982350447 0  8.000193151823488 9.999845694692736 0  9 10 0  -9 12 0  -8.000446699208931 11.99977664255903 0  -7.00087008184907 11.99954293487454 0  -6.001243781450614 11.99928649799275 0  -5.001535106636996 11.99899006394905 0  -4.001475221448647 11.99966634861796 0  -3.001529495347031 12.00033596339683 0  -2.00105382674043 12.00025451570144 0  -1.000523653462047 12.00021007909356 0  2.732418567104825e-05 12.00020080358362 0  1.000584065116703 12.0002280407113 0  2.001133938013704 12.00029983886566 0  3.001652081604259 12.00043638624558 0  4.001595201222144 11.99971811575838 0  5.001633078857707 11.99899395869694 0  6.001313047947018 11.99929103976774 0  7.000914514920025 11.99954626030532 0  8.000468438460706 11.99977832482264 0  9 12 0  -9 14 0  -8.000802989988967 13.99975360192942 0  -7.001607184298747 13.99949587268928 0  -6.002414821783433 13.99921447970756 0  -5.00323085705304 13.99889512661436 0  -4.003238889075151 13.99968731012772 0  -3.003244219288323 14.00048950696016 0  -2.002135660199384 14.0003739853833 0  -1.001042073442638 14.00031024573078 0  4.555337108858853e-05 14.00029060293976 0  1.00113584416341 14.00031253040218 0  2.002236826289127 14.00037723974407 0  3.003354805662193 14.0004882631474 0  4.003363706213375 13.9996905505199 0  5.003368625545145 13.99889781288764 0  6.002511084289419 13.99921365161567 0  7.001668404205599 13.99949437011138 0  8.000832785541753 13.99975262596906 0  9 14 0  -9 16 0  -8.001153851354559 15.99977594690015 0  -7.00232950597209 15.99954359422984 0  -6.003550648574199 15.99929449540975 0  -5.004844835864091 15.9990200483785 0  -4.004890517326871 15.99969821739754 0  -3.0048475421461 16.00037281496329 0  -2.003159183199177 16.00028681677163 0  -1.001537349134138 16.00023441889618 0  5.31463130206883e-05 16.00021447660027 0  1.001645582656504 16.00022624166747 0  2.003273263001403 16.00026973256687 0  3.00497162171095 16.00034556672348 0  4.005020296726082 15.99967031138124 0  5.004977912886607 15.9989945284555 0  6.003647876317642 15.99927698127539 0  7.00239295822078 15.99953249614068 0  8.001185150910173 15.99977054152502 0  9 16 0  -9 18 0  -8.001416851257378 17.99983150638271 0  -7.002868718230248 17.99965836464825 0  -6.004392435646439 17.99947600749885 0  -5.006028472107531 17.99928005337954 0  -4.006097810803578 17.99970112843218 0  -3.006031219883297 18.00012165740204 0  -2.003918630223903 18.00006565012259 0  -1.001908220472036 18.00002918753147 0  5.293261454803707e-05 18.00001193338556 0  1.002015194474231 18.00001345271239 0  2.004028860700139 18.00003323824585 0  3.006146610496045 18.00007061150648 0  4.006217277998776 17.99965507589761 0  5.006150068268519 17.99924075795485 0  6.004482137533389 17.99944821481971 0  7.002927778589125 17.99964059352994 0  8.001446154484606 17.99982283868749 0  9 18 0  -9 20 0  -8.001539188239253 19.99990564857355 0  -7.003119342274275 19.99981001271232 0  -6.004782995928202 19.99971194295054 0  -5.006575822005527 19.99961055776083 0  -4.006655139148417 19.9997015297018 0  -3.006577046396928 19.99979191918406 0  -2.004271639324543 19.99976660324525 0  -1.002083151074849 19.99974742996123 0  4.823312762050919e-05 19.99973460245645 0  1.002180161945606 19.999727894812 0  2.004370252220093 19.99972666684969 0  3.006678230595756 19.9997298264792 0  4.006757809184297 19.99964741572053 0  5.006679344524259 19.99956585894977 0  6.00485999403382 19.99967980429793 0  7.003170357382481 19.99978924575547 0  8.001564598583284 19.99989546229581 0  8.999999999993491 19.99999999999801 0  -9 22 0  -8.001497107072895 21.99998491723619 0  -7.003034787415869 21.99997139401128 0  -6.004654891505516 21.99996114274526 0  -5.006401817192392 21.99995618480099 0  -4.006479572434541 21.99969864563967 0  -3.006402537220572 21.99944048025591 0  -2.004159285720891 21.99944308672026 0  -1.002030757370832 21.99944039896386 0  4.134810165619141e-05 21.99943290141892 0  1.002113559080571 21.99942051898365 0  2.00424238034952 21.99940262744854 0  3.006486042692405 21.99937804293037 0  4.006562611038019 21.99964491563355 0  5.006484425533837 21.99991230661027 0  6.004716956593946 21.99992940280833 0  7.003076201577539 21.99995078681508 0  8.001517821033293 21.99997477922597 0  9 22 0  -9 24 0  -8.001292162932565 24.00005794825772 0  -7.002619331443667 24.0001196869811 0  -6.004017494693342 24.00018916475306 0  -5.005524560423961 24.00027065461985 0  -4.005591625774828 23.99969281090739 0  -3.005525521150478 23.99911442282273 0  -2.003590283719709 23.99914065907199 0  -1.001753708585811 23.99915252373073 0  3.409253115321712e-05 23.99915065530423 0  1.001821659494737 23.99913508816714 0  2.003657512082727 23.99910525515392 0  3.005591478987186 23.99905998309199 0  4.005655546855153 23.99964635458498 0  5.005587127712873 24.00023305590424 0  6.00406510376643 24.00016183821311 0  7.002651382246412 24.00010188481012 0  8.001308276092718 24.00004917200358 0  9 24 0  -9 26 0  -8.000946548177154 26.00011582912934 0  -7.001918617767891 26.00023703047972 0  -6.002942418581988 26.00036913712026 0  -5.004045435737506 26.00051801282268 0  -4.004094864928353 25.9996845366867 0  -3.00404716770801 25.99885065094563 0  -2.002628794916888 25.99889551593462 0  -1.001282543123978 25.99891937843789 0  2.78653051652728e-05 25.99892299858323 0  1.001337789088318 25.99890650936365 0  2.002682566508928 25.99886941752731 0  3.004098415345403 25.99881060141217 0  4.004142947986759 25.99965055498213 0  5.004091497686262 26.00049068396302 0  6.002978088847149 26.00034921849703 0  7.001942917711681 26.00022402655856 0  8.00095884813809 26.0001094095801 0  9 26 0  -9 28 0  -8.000498095479983 28.0001522345087 0  -7.001009607403515 28.00031076038172 0  -6.001548334718869 28.0004820321993 0  -5.002128699369154 28.00067283527627 0  -4.00215576846471 27.9996746398617 0  -3.002131440755583 27.99867623995353 0  -2.001380937778614 27.99873416983277 0  -1.000668961822887 27.99876698596006 0  2.36713595164629e-05 27.99877555776089 0  1.000715659418929 27.99876011360544 0  2.001425677525425 27.99872024138325 0  3.002172842808194 27.99865488724639 0  4.002193327448071 27.99965662049459 0  5.002163845192343 28.00065844418534 0  6.001576105599209 28.00047152172034 0  7.001028778850599 28.0003038876849 0  8.000507873721226 
[...]
<PointData  Vectors="f_44-0"> 
<DataArray  type="Float64"  Name="f_44-0"  NumberOfComponents="3" format="ascii">0.0000000000000000e+00 0.0000000000000000e+00 0.0000000000000000e+00  2.9818367964505522e-08 -2.6216294297372591e+00 0.0000000000000000e+00  1.1466420889653448e-07 -2.5892452611923051e+00 0.0000000000000000e+00  2.3762341856328468e-07 -2.2991677837273472e+00 0.0000000000000000e+00  0.0000000000000000e+00 0.0000000000000000e+00 0.0000000000000000e+00  0.0000000000000000e+00 0.0000000000000000e+00 0.0000000000000000e+00  0.0000000000000000e+00 0.0000000000000000e+00 0.0000000000000000e+00  0.0000000000000000e+00 0.0000000000000000e+00 0.0000000000000000e+00  0.0000000000000000e+00 0.0000000000000000e+00 0.0000000000000000e+00  0.0000000000000000e+00 0.0000000000000000e+00 0.0000000000000000e+00  0.0000000000000000e+00 0.0000000000000000e+00 0.0000000000000000e+00  0.0000000000000000e+00 0.0000000000000000e+00 0.0000000000000000e+00  0.0000000000000000e+00 0.0000000000000000e+00 0.0000000000000000e+00  0.0000000000000000e+00 0.0000000000000000e+00 0.0000000000000000e+00  0.0000000000000000e+00 0.0000000000000000e+00 0.0000000000000000e+00  3.1195972767883331e-08 -2.6305719015350926e+00 0.0000000000000000e+00  1.1575241468920776e-07 -2.5974618350788679e+00 0.0000000000000000e+00  2.3717404770751316e-07 -2.3052180529282897e+00 0.0000000000000000e+00  0.0000000000000000e+00 0.0000000000000000e+00 0.0000000000000000e+00  0.0000000000000000e+00 0.0000000000000000e+00 0.0000000000000000e+00  -1.1035576311667582e-03 -2.4188983799082964e+00 0.0000000000000000e+00  3.5385382961058394e-03 -2.5841554758479304e+00 0.0000000000000000e+00  1.8456358208820786e-02 -2.4272673293127274e+00 0.0000000000000000e+00  1.1240827978488230e-03 -4.2770972769135332e-04 0.0000000000000000e+00  1.2767050582813536e-03 -8.3739941547043622e-04 0.0000000000000000e+00  7.1149022926109248e-04 -4.8329141514519448e-04 0.0000000000000000e+00  5.4754373188958599e-04 8.0488971251120388e-05 0.0000000000000000e+00  3.1194177159386724e-04 3.9279393112892261e-04 0.0000000000000000e+00  1.0614002156004148e-04 3.2733818838123540e-04 0.0000000000000000e+00  -1.0555701786618681e-04 8.2124800174394055e-06 0.0000000000000000e+00  -2.5859364640138115e-04 -4.1354499593113710e-04 0.0000000000000000e+00  -4.6513699181776431e-04 -1.0498099888868271e-03 0.0000000000000000e+00  -7.5460588249337481e-04 -1.2072658766422060e-03 0.0000000000000000e+00  -1.2534340525826024e-03 -2.0165875081997581e-03 0.0000000000000000e+00  -1.0961056476489768e-03 -2.4263960914422236e+00 0.0000000000000000e+00  3.7958277530273157e-03 -2.5922819673146908e+00 0.0000000000000000e+00  1.8656665946955489e-02 -2.4349754227584426e+00 0.0000000000000000e+00  0.0000000000000000e+00 0.0000000000000000e+00 0.0000000000000000e+00  0.0000000000000000e+00 0.0000000000000000e+00 0.0000000000000000e+00  8.5526094391879161e-03 -2.4274670339074769e+00 0.0000000000000000e+00  -2.2284675509945044e-03 -2.5744725073313650e+00 0.0000000000000000e+00  8.5296975586798759e-03 -2.4294909737767769e+00 0.0000000000000000e+00  -1.1830827521767183e-03 -1.7905792165746886e-03 0.0000000000000000e+00  -8.6296855946326243e-05 -1.0712914626509445e-04 0.0000000000000000e+00  1.8904575897201595e-04 1.2751881767783348e-03 0.0000000000000000e+00  1.1666883338568875e-04 1.4216195014622524e-03 0.0000000000000000e+00  -2.6135901057798539e-04 6.7042235728876178e-04 0.0000000000000000e+00  -4.2353094872504138e-04 -4.6022133581951436e-05 0.0000000000000000e+00  -3.5124194277249177e-04 -1.7683099168360329e-04 0.0000000000000000e+00  2.1320153050244703e-04 -7.0100720384355826e-04 0.0000000000000000e+00  3.2741400995551476e-04 -1.2953538197360485e-03 0.0000000000000000e+00  1.0634622995185271e-04 -7.7494132399304671e-04 0.0000000000000000e+00  -1.8066183400080669e-04 -1.0194436528038989e-04 0.0000000000000000e+00  8.8582835622397632e-03 -2.4347943084467376e+00 0.0000000000000000e+00  -2.0945266968752847e-03 -2.5819820739670400e+00 0.0000000000000000e+00  8.3439021179257909e-03 -2.4368936859783048e+00 0.0000000000000000e+00  0.0000000000000000e+00 0.0000000000000000e+00 0.0000000000000000e+00  0.0000000000000000e+00 0.0000000000000000e+00 0.0000000000000000e+00  7.9960366278118162e-03 -2.4290844378793972e+00 0.0000000000000000e+00  -2.2750886446361285e-03 -2.5755030210789074e+00 0.0000000000000000e+00  8.1449789353499700e-03 -2.4290045911912745e+00 0.0000000000000000e+00  -2.5630107443211608e-03 1.1629816253253291e-03 0.0000000000000000e+00  -1.2099821117796488e-03 3.4576581515488847e-03 0.0000000000000000e+00  -1.0772089899435398e-03 2.9559127927703405e-03 0.0000000000000000e+00  -1.8947834370630849e-03 -5.9116771930583633e-04 0.0000000000000000e+00  -1.1975427381950505e-03 -2.1736382552097759e-03 0.0000000000000000e+00  -1.7769615793802624e-04 -1.0295494064269230e-03 0.0000000000000000e+00  6.0407375249139266e-04 -4.2901781241139642e-04 0.0000000000000000e+00  3.9899212047176736e-04 -3.4691673902348191e-04 0.0000000000000000e+00  8.2889984909023608e-04 -1.4687721423723156e-04 0.0000000000000000e+00  1.4594216421242691e-03 -2.2016436246929494e-03 0.0000000000000000e+00  3.5073461288492625e-04 -4.2860455786384649e-03 0.0000000000000000e+00  9.9498195224979376e-03 -2.4356554135486004e+00 0.0000000000000000e+00  -1.2527103232550555e-03 -2.5816632482400679e+00 0.0000000000000000e+00  8.1660337205225458e-03 -2.4347258360457302e+00 0.0000000000000000e+00  0.0000000000000000e+00 0.0000000000000000e+00 0.0000000000000000e+00  0.0000000000000000e+00 0.0000000000000000e+00 0.0000000000000000e+00  7.1951382700251977e-03 -2.4285879773830863e+00 0.0000000000000000e+00  -3.6501946217313598e-03 -2.5761456235649685e+00 0.0000000000000000e+00  5.4658319367820989e-03 -2.4312936210784564e+00 0.0000000000000000e+00  -9.7048620339837480e-03 -2.7827222666270647e-03 0.0000000000000000e+00  -1.1053108404486310e-02 1.6880234941574984e-03 0.0000000000000000e+00  -3.7383698966874158e-03 -4.1395661334798061e-03 0.0000000000000000e+00  -3.6200558270551909e-03 -7.9245527914814529e-03 0.0000000000000000e+00  3.4847435905305940e-04 -4.1525633241353112e-03 0.0000000000000000e+00  1.6241985844879464e-03 -3.5042860544522076e-03 0.0000000000000000e+00  3.9384516507879434e-03 -7.2498702487706042e-03 0.0000000000000000e+00  3.6736410576321010e-03 -1.1328109366213973e-03 0.0000000000000000e+00  1.3744867175700752e-02 -4.7769030206804026e-03 0.0000000000000000e+00  1.4796159211978877e-02 -1.2437134889093111e-02 0.0000000000000000e+00  9.4108707558734992e-03 -1.1954648209074234e-02 0.0000000000000000e+00  1.1353244557613702e-02 -2.4343871767715970e+00 0.0000000000000000e+00  1.8624018914978373e-04 -2.5796774725331391e+00 0.0000000000000000e+00  8.8175838291066882e-03 -2.4323321713799988e+00 0.0000000000000000e+00  0.0000000000000000e+00 0.0000000000000000e+00 0.0000000000000000e+00  0.0000000000000000e+00 0.0000000000000000e+00 0.0000000000000000e+00  5.5864450410369670e-03 -2.4242797477503268e+00 0.0000000000000000e+00  -8.3162550056137680e-03 -2.5714408748277546e+00 0.0000000000000000e+00  -4.8575943343715199e-03 -2.4257705937691840e+00 0.0000000000000000e+00  -4.3925201816488145e-02 1.3382009250757025e-02 0.0000000000000000e+00  -3.3805127955959462e-02 9.7714488685317850e-03 0.0000000000000000e+00  -1.8680862878828992e-02 6.7770446243805536e-03 0.0000000000000000e+00  5.7129978602568914e-04 -1.4760354671141443e-02 0.0000000000000000e+00  1.0814202174615922e-03 -5.8778682229251337e-03 0.0000000000000000e+00  3.7488708061565795e-03 -4.2418745044458866e-03 0.0000000000000000e+00  6.1398869173987522e-03 -4.5185708803719736e-03 0.0000000000000000e+00  5.9697263866149500e-03 -5.0130121850242579e-03 0.0000000000000000e+00  2.9159422322736082e-02 -7.7312468215520588e-03 0.0000000000000000e+00  3.5414033596087004e-02 -1.5805097310738550e-02 0.0000000000000000e+00  3.7325691894347882e-02 -2.0197164152776403e-02 0.0000000000000000e+00  1.7280632132369505e-02 -2.4314151725584119e+00 0.0000000000000000e+00  2.5735112973302712e-03 -2.5754570192895909e+00 0.0000000000000000e+00  9.7040150012333935e-03 -2.4279932096173416e+00 0.0000000000000000e+00  0.0000000000000000e+00 0.0000000000000000e+00 0.0000000000000000e+00  0.0000000000000000e+00 0.0000000000000000e+00 0.0000000000000000e+00  4.5809013957375244e-03 -2.4163841795960139e+00 0.0000000000000000e+00  -1.0571596774390042e-02 -2.5635029731920325e+00 0.0000000000000000e+00  -4.4161439609421618e-03 -2.4197960325756087e+00 0.0000000000000000e+00  -2.8603302227573436e-02 5.8800325376513855e-03 0.0000000000000000e+00  -3.5832671360488004e-02 1.1233285120578640e-02 0.0000000000000000e+00  -4.6894553456527314e-02 2.5969894724765272e-02 0.0000000000000000e+00  -1.8776151415889713e-02 -2.2775986273548151e-02 0.0000000000000000e+00  -6.8634492556159292e-03 -2.4129154709752323e-02 0.0000000000000000e+00  2.2048527489960420e-03 -2.2724386288885370e-02 0.0000000000000000e+00  9.1622859367707504e-03 -2.2302510492892193e-02 0.0000000000000000e+00  1.1278333449086396e-02 -2.1741211758886742e-02 0.0000000000000000e+00  2.2056853972935123e-02 -1.0129160444226092e-02 0.0000000000000000e+00  3.1990106643238640e-02 -1.0900834942589669e-02 0.0000000000000000e+00  4.0563686356611249e-02 -6.3233197181075613e-03 0.0000000000000000e+00  2.2498450544387569e-02 -2.4262949798267117e+00 0.0000000000000000e+00  4.2180658222176967e-03 -2.5686011255551349e+00 0.0000000000000000e+00  1.0415003451505362e-02 -2.4210315851998918e+00 0.0000000000000000e+00  0.0000000000000000e+00 0.0000000000000000e+00 0.0000000000000000e+00  0.0000000000000000e+00 0.0000000000000000e+00 0.0000000000000000e+00  3.5160975044141482e-03 -2.4047493477695849e+00 0.0000000000000000e+00  -1.3358558314363967e-02 -2.5520101619375386e+00 0.0000000000000000e+00  -8.9896638481245100e-03 -2.4087575053169377e+00 0.0000000000000000e+00  -1.2679251712397982e-02 -4.5689920426639366e-03 0.0000000000000000e+00  -1.7438780066866645e-02 -2.1279090893339563e-03 0.0000000000000000e+00  -2.0032700970006975e-02 -5.6583780415701947e-03 0.0000000000000000e+00  -1.4546074074430029e-02 -3.7287993929068786e-02 0.0000000000000000e+00  -6.1658555898896324e-03 -3.9931097345689434e-02 0.0000000000000000e+00  1.9163233174052607e-03 -3.9674526395931914e-02 0.0000000000000000e+00  9.9838573291578525e-03 -3.9035977325007666e-02 0.0000000000000000e+00  1.6721188738347159e-02 -3.5473077862700923e-02 0.0000000000000000e+00  1.4108785824767763e-02 2.1057843336715473e-03 0.0000000000000000e+00  1.8707090428368999e-02 -3.6354250561677854e-04 0.0000000000000000e+00  2.1231964762146248e-02 -5.0797529316249507e-03 0.0000000000000000e+00  2.4631380378233279e-02 -2.4153907475796608e+00 0.0000000000000000e+00  7.2236442151525290e-03 -2.5590800103871527e+00 0.0000000000000000e+00  1.1467522025482834e-02 -2.4108698575226488e+00 0.0000000000000000e+00  0.0000000000000000e+00 0.0000000000000000e+00 0.0000000000000000e+00  0.0000000000000000e+00 0.0000000000000000e+00 0.0000000000000000e+00  2.3355008961723034e-03 -2.3890516621908056e+00 0.0000000000000000e+00  -1.6379094430131410e-02 -2.5364410790729170e+00 0.0000000000000000e+00  -1.3426077888532541e-02 -2.3929585077664846e+00 0.0000000000000000e+00  -7.3204050336843568e-03 -1.2844387707407428e-02 0.0000000000000000e+00  -1.1213701574946073e-02 -1.0582499071617381e-02 0.0000000000000000e+00  -1.4584989257844041e-02 -7.8634206942648499e-03 0.0000000000000000e+00  -1.9099043342939818e-02 -5.6073726081039083e-02 0.0000000000000000e+00  -8.8902972092187154e-03 -5.8090995961339160e-02 0.0000000000000000e+00  1.9030340011436300e-03 -5.8945893128984808e-02 0.0000000000000000e+00  1.2482658517911976e-02 -5.8707588305485996e-02 0.0000000000000000e+00  2.1365726662320589e-02 -5.5211925439749600e-02 0.0000000000000000e+00  8.2113450117871929e-03 8.9475095620841823e-03 0.0000000000000000e+00  1.1676333085680606e-02 5.9008072049947001e-03 0.0000000000000000e+00  1.4819861140021503e-02 4.3144185339221508e-03 0.0000000000000000e+00  2.8362209556811364e-02 -2.4005605277335955e+00 0.0000000000000000e+00  1.0518347820786112e-02 -2.5451530604069448e+00 0.0000000000000000e+00  1.2731304926246948e-02 -2.3965991825717028e+00 0.0000000000000000e+00  0.0000000000000000e+00 0.0000000000000000e+00 0.0000000000000000e+00  0.0000000000000000e+00 0.0000000000000000e+00 0.0000000000000000e+00  1.2845048332417832e-03 -2.3696287875993618e+00 0.0000000000000000e+00  -1.8920104377450817e-02 -2.5170701435170493e+00 0.0000000000000000e+00  -1.7498643740331096e-02 -2.3724783976581540e+00 0.0000000000000000e+00  -6.1459786254557548e-03 -1.6621224951928987e-02 0.0000000000000000e+00  -8.5380385163059316e-03 -1.4632410357728004e-02 0.0000000000000000e+00  -9.5457364572803273e-03 -1.3333035398448247e-02 0.0000000000000000e+00  -2.2620425224858669e-02 -8.2199422208485667e-02 0.0000000000000000e+00  -1.1324980158800121e-02 -8.2070973606596556e-02 0.0000000000000000e+00  1.5185183911457520e-03 -8.2605531577286506e-02 0.0000000000000000e+00  1.4116187657241205e-02 -8.2894187351423773e-02 0.0000000000000000e+00  2.4907612364264708e-02 -8.0774609532957273e-02 0.0000000000000000e+00  7.3651258358924188e-03 1.2481770334098396e-02 0.0000000000000000e+00  9.7538704004324246e-03 1.0544432021404593e-02 0.0000000000000000e+00  1.0815637021568372e-02 9.1631996457245506e-03 0.0000000000000000e+00  3.2454348816752354e-02 -2.3800359534401356e+00 0.0000000000000000e+00  1.3794772955088833e-02 -2.5267088499843338e+00 0.0000000000000000e+00  1.3969556594596064e-02 -2.3780009368558006e+00 0.0000000000000000e+00  0.0000000000000000e+00 0.0000000000000000e+00 0.0000000000000000e+00  0.0000000000000000e+00 0.0000000000000000e+00 0.0000000000000000e+00  6.6149277101177544e-04 -2.3477345018604976e+00 0.0000000000000000e+00  -2.0242514555313899e-02 -2.4951497948524413e+00 0.0000000000000000e+00  -1.9745960416435188e-02 -2.3488085161359882e+00 0.0000000000000000e+00  -6.6572784044906510e-03 -1.7084114353483924e-02 0.0000000000000000e+00  -7.7404767588090838e-03 -1.6600269649053451e-02 0.0000000000000000e+00  -7.5477674261606280e-03 -1.6665821792169629e-02 0.0000000000000000e+00  -2.4304343967182670e-02 -1.1192366847222335e-01 0.0000000000000000e+00  -1.2720124712766574e-02 -1.0939847842002638e-01 0.0000000000000000e+00  1.0820913974754138e-03 -1.0946317921112000e-01 0.0000000000000000e+00  1.4667347455256824e-02 -1.1026299397789824e-01 0.0000000000000000e+00  2.6730425542953924e-02 -1.1010594309607238e-01 0.0000000000000000e+00  8.2360332717491009e-03 1.2831548094131241e-02 0.0000000000000000e+00  9.2668532709616960e-03 1.2242070832116874e-02 0.0000000000000000e+00  8.9558286618851689e-03 1.2142011330583076e-02 0.0000000000000000e+00  3.4528097375333799e-02 -2.3556611467670256e+00 0.0000000000000000e+00  1.5643261986376090e-02 -2.5046246791002575e+00 0.0000000000000000e+00  1.4661232370696728e-02 -2.3560747729302802e+00 0.0000000000000000e+00  4.5701913020908690e-11 7.4084098376546638e-10 0.0000000000000000e+00  0.0000000000000000e+00 0.0000000000000000e+00 0.0000000000000000e+00  6.7958431451789394e-04 -2.3253365650348434e+00 0.0000000000000000e+00  -1.9857811104323473e-02 -2.4726861066032302e+00 0.0000000000000000e+00  -1.9353487611181979e-02 -2.3242872888807371e+00 0.0000000000000000e+00  -7.3673212788512620e-03 -1.5174351579601382e-02 0.0000000000000000e+00  -7.3370111776209970e-03 -1.6378161766671090e-02 0.0000000000000000e+00  -6.0536628482980529e-03 -1.7999798721810605e-02 0.0000000000000000e+00  -2.3549308505717369e-02 -1.4227914899634153e-01 0.0000000000000000e+00  -1.2719635397121313e-02 -1.3746102520385273e-01 0.0000000000000000e+00  6.8330666677242162e-04 -1.3694827597822332e-01 0.0000000000000000e+00  1.3907728626371059e-02 -1.3824988905377397e-01 0.0000000000000000e+00  2.6082483604790221e-02 -1.4036926066998684e-01 0.0000000000000000e+00  9.2025496175861029e-03 1.0757090546826395e-02 0.0000000000000000e+00  9.1060745506872792e-03 1.1884420252405953e-02 0.0000000000000000e+00  7.7646924986404034e-03 1.3441879442910780e-02 0.0000000000000000e+00  3.4125570473351810e-02 -2.3301186730940029e+00 0.0000000000000000e+00  1.5683115680527257e-02 -2.4811949574993819e+00 0.0000000000000000e+00  1.4622985818664943e-02 -2.3328974566604868e+00 0.0000000000000000e+00  0.0000000000000000e+00 0.0000000000000000e+00 0.0000000000000000e+00  0.0000000000000000e+00 0.0000000000000000e+00 0.0000000000000000e+00  1.4154662741124296e-03 -2.3047246968328969e+00 0.0000000000000000e+00  -1.7638427879069166e-02 -2.4520018438725972e+00 0.0000000000000000e+00  -1.6108365390303733e-02 -2.3015505141736665e+00 0.0000000000000000e+00  -7.3796624545706688e-03 -1.1562548087782175e-02 0.0000000000000000e+00  -6.3914755182139377e-03 -1.4413263579764224e-02 0.0000000000000000e+00  -4.3487337988443089e-03 -1.7585569327819038e-02 0.0000000000000000e+00  -2.0159736482253721e-02 -1.7008743924785766e-01 0.0000000000000000e+00  -1.1224851563268480e-02 -1.6332186098362433e-01 0.0000000000000000e+00  3.6914210825085688e-04 -1.6223563236481076e-01 0.0000000000000000e+00  1.1816110074534763e-02 -1.6397013612757871e-01 0.0000000000000000e+00  2.2819570800670309e-02 -1.6836041578611283e-01 0.0000000000000000e+00  9.4105128197730942e-03 7.0211951510440272e-03 0.0000000000000000e+00  8.3559730598849712e-03 9.8210404132957445e-03 0.0000000000000000e+00  6.2485439534069554e-03 1.2935043454170091e-02 0.0000000000000000e+00  3.0990326115585824e-02 -2.3060888755470090e+00 0.0000000000000000e+00  1.3810975935626774e-02 -2.4589098944160899e+00 0.0000000000000000e+00  1.3820667474662077e-02 -2.3109045906511119e+00 0.0000000000000000e+00  0.0000000000000000e+00 0.0000000000000000e+00 0.0000000000000000e+00  0.0000000000000000e+00 0.0000000000000000e+00 0.0000000000000000e+00  2.8243079508772128e-03 -2.2881187679537942e+00 0.0000000000000000e+00  -1.3755024427673509e-02 -2.4353388909051170e+00 0.0000000000000000e+00  -1.0261175858627996e-02 -2.2831012209701909e+00 0.0000000000000000e+00  -6.3300146761558372e-03 -6.9213559648164851e-03 0.0000000000000000e+00  -4.5784066029084325e-03 -1.1138725576046228e-02 0.0000000000000000e+00  -2.0681672921544591e-03 -1.5571910059342943e-02 0.0000000000000000e+00  -1.4449418659627865e-02 -1.9234204677136493e-01 0.0000000000000000e+00  -8.3991297792531169e-03 -1.8419727672254535e-01 0.0000000000000000e+00  1.4517901456546627e-04 -1.8261495099847685e-01 0.0000000000000000e+00  8.5630902889980241e-03 -1.8466416958102452e-01 0.0000000000000000e+00  1.7207791162565662e-02 -1.9103798337466263e-01 0.0000000000000000e+00  8.5023088428867240e-03 2.2822183995149718e-03 0.0000000000000000e+00  6.6814359153731621e-03 6.4667575876596042e-03 0.0000000000000000e+00  4.1061022936573852e-03 1.0861825704946046e-02 0.0000000000000000e+00  2.5358184546507522e-02 -2.2861762401179226e+00 0.0000000000000000e+00  1.0197958077870292e-02 -2.4401719768806562e+00 0.0000000000000000e+00  1.2332651877245341e-02 -2.2924601652588881e+00 0.0000000000000000e+00  0.0000000000000000e+00 0.0000000000000000e+00 0.0000000000000000e+00  0.0000000000000000e+00 0.0000000000000000e+00 0.0000000000000000e+00  4.7663877899614482e-03 -2.2773516287612883e+00 0.0000000000000000e+00  -8.6038035097645311e-03 -2.4245411652718776e+00 0.0000000000000000e+00  -2.4175904866490538e-03 -2.2709884972050309e+00 0.0000000000000000e+00  -4.2711135801179988e-03 -1.8549358440379182e-03 0.0000000000000000e+00  -1.9674058643681215e-03 -6.9810593055247691e-03 0.0000000000000000e+00  7.3207675678808317e-04 -1.2216565972456673e-02 0.0000000000000000e+00  -7.0269467357071914e-03 -2.0663967646238535e-01 0.0000000000000000e+00  -4.5670381005937562e-03 -1.9782306085890564e-01 0.0000000000000000e+00  1.0775816135338423e-05 -1.9587434427059272e-01 0.0000000000000000e+00  4.4703602682393661e-03 -1.9807962609591287e-01 0.0000000000000000e+00  9.8303694909182542e-03 -2.0592568784339493e-01 0.0000000000000000e+00  6.5292984999590483e-03 -2.8552876410750170e-03 0.0000000000000000e+00  4.1568388942816612e-03 2.2555058025868387e-03 0.000000000000