<?xml version="1.0"?>
<VTKFile type="UnstructuredGrid"  version="0.1"  >
<UnstructuredGrid>
<Piece  NumberOfPoints="589" NumberOfCells="1080">
<Points>
<DataArray  type="Float64"  NumberOfComponents="3"  format="ascii">-9 0 0  -8 0 0  -7 0 0  -6 0 0  -5 0 0  -4 0 0  -3 0 0  -2 0 0  -1 0 0  0 0 0  1 0 0  2 0 0  3 0 0  4 0 0  5 0 0  6 0 0  7 0 0  8 0 0  9 0 0  -9 2 0  -7.999996563257944 2.000004566429769 0  -6.999992858557698 2.000008589489039 0  -5.999988226221402 2.000011629504368 0  -4.999981131429596 2.000013496984843 0  -3.999988376217491 2.00001000264971 0  -2.999995793338001 2.000006793342354 0  -1.999999468824841 2.000003820761679 0  -1.000000201527746 2.000001448527402 0  9.368431560483676e-07 2.000000329537265 0  1.000002316222159 2.000000836085944 0  2.000002394101309 2.000002758092893 0  3.000000186699627 2.000005041006472 0  3.999995521535337 2.000007209187581 0  4.999988989866388 2.000007208840791 0  5.999993743827219 2.000007396571337 0  6.999996410714671 2.000005897480873 0  7.999998309766364 2.000003244021356 0  9 2 0  -9.000000000009988 4 0  -7.999994198310237 4.000011306456106 0  -6.999989427652586 4.00002111124201 0  -5.999986302249998 4.000027949195801 0  -4.999984731974489 4.000030436112513 0  -3.999995001463672 4.000028595973538 0  -3.000001883134468 4.00001967634042 0  -2.000003739338432 4.000008165376092 0  -1.000001241370343 3.999998862199106 0  3.63669291033542e-06 3.999994902830621 0  1.000008693048235 3.999997212447992 0  2.000011830642173 4.000004056330338 0  3.00001098222681 4.000013246584641 0  4.000005545552586 4.000022041151547 0  4.999996969845199 4.000023481331727 0  5.99999583595193 4.000021540465326 0  6.999995892770996 4.000016412511245 0  7.999997454786678 4.000008850369271 0  9 4 0  -9 6 0  -7.999987709029424 6.000024053696817 0  -6.999979415702287 6.00004550081174 0  -5.999978157785754 6.000061673493398 0  -4.999984772522367 6.000070054147526 0  -4.000004481315656 6.000056626593193 0  -3.000013334372575 6.000029239041893 0  -2.000009503665121 6.000000684873648 0  -1.000000502103131 5.999984970884439 0  8.372437695107913e-06 5.999981641084 0  1.000016167888914 5.999986107958896 0  2.000022075540145 5.999998804156825 0  3.000024485375565 6.000020293446132 0  4.000020488555945 6.000042185204157 0  5.00000503072498 6.000051966989635 0  5.999993165186935 6.000048433091746 0  6.999989353927231 6.000036664703421 0  7.999992666867667 6.000019610002401 0  9 6 0  -9 8 0  -7.99996522770642 8.000047229723149 0  -6.999941261189336 8.000090990691843 0  -5.999938522268038 8.00012656837654 0  -4.999965786305435 8.000146199145782 0  -4.000004178775762 8.000085295726128 0  -2.999995831869892 8.000014068707033 0  -1.999980369428902 7.9999801336731 0  -0.9999786961102831 7.999977257914407 0  1.274972041897924e-05 7.999976578272638 0  1.000006034572255 7.99997317286592 0  2.000008065281737 7.999985748801902 0  3.000023653943824 8.000007252921531 0  4.000028943113836 8.00006229911709 0  4.999993718176535 8.000124612622066 0  5.999958275561771 8.000108266817858 0  6.999954316435779 8.000078064461725 0  7.999971796682044 8.000040592533185 0  9 8 0  -9 10 0  -7.999899510720674 10.0000842907897 0  -6.999818183009287 10.00016922920662 0  -5.99977886293131 10.00025527644203 0  -4.999813260334489 10.00034247362755 0  -3.999874923493581 10.00014390198342 0  -2.999862656713185 9.999973702266249 0  -1.999886413285169 10.00000612144771 0  -0.99994030691014 10.00001659346468 0  2.089346918168921e-05 10.00001914245943 0  0.9999829720919594 10.00001864470048 0  1.999933194168358 10.0000184815706 0  2.999888454241 9.999960263286896 0  3.999893206147355 10.00010574859023 0  4.999829236237285 10.00029820900078 0  5.9997974288188 10.00022354408018 0  6.99983350721895 10.00014855201049 0  7.999908025166572 10.0000740633903 0  9 10 0  -9 12 0  -7.999757088438699 12.0001187831235 0  -6.99952697808779 12.00024306933893 0  -5.999324147626621 12.00037944941767 0  -4.999166435859296 12.00053715003945 0  -3.999198459983616 12.00017196904543 0  -2.999167729974645 11.99980998217834 0  -1.999406024501121 11.99985755404101 0  -0.999675278753038 11.9998853792296 0  4.272191725231815e-05 11.99989457345558 0  0.9997557826492587 11.99988469276911 0  1.999469912608467 11.99985189147303 0  2.999196651409067 11.99978623139724 0  3.999223353572911 12.00013425991364 0  4.999206634237265 12.00048480022188 0  5.999364928602243 12.00034016853639 0  6.999558885386719 12.00021704938968 0  7.999774393316106 12.00010584785189 0  9 12 0  -9 14 0  -7.99956333797256 14.00013128805158 0  -6.999126456134125 14.00026857726786 0  -5.998688619810745 14.00041840330426 0  -4.998247585774903 14.00058834632353 0  -3.998243630681716 14.00015697557019 0  -2.998239029993772 13.99971991335971 0  -1.998802029218703 13.99978801858002 0  -0.999359386020076 13.9998287290319 0  8.43093600689172e-05 13.99984633893998 0  0.999524452196105 13.99984246298883 0  1.998956479530927 13.99981679227349 0  2.998376419733738 13.99976783158144 0  3.998369918752446 14.00014593509009 0  4.998369775035179 14.0005212390053 0  5.998789539284194 14.00037082037542 0  6.999197920364254 14.00023792207497 0  7.999600281168573 14.00011624221927 0  9 14 0  -9 16 0  -7.99937029655436 16.00011980519756 0  -6.998729472330709 16.00024397330511 0  -5.998065433583575 16.00037694202534 0  -4.997363987471568 16.00052320895023 0  -3.997340130269266 16.00014780276335 0  -2.99736119862784 15.9997741394977 0  -1.998221029893018 15.99982819031374 0  -0.9990479043761047 15.9998645831519 0  0.0001400834264516166 15.99988413836822 0  0.9993257349580236 15.99988749934862 0  1.998491746094034 15.99987493824112 0  2.997619634578392 15.99984644115575 0  3.997593632842744 16.00015414331048 0  4.997616805963017 16.00046190456121 0  5.998259281555479 16.00033144079665 0  6.998860796644971 16.00021395582532 0  7.999436596253274 16.00010490395211 0  9 16 0  -9 18 0  -7.999221556942111 18.00009087522598 0  -6.998425023478994 18.00018418421315 0  -5.997591360560514 18.00028231522259 0  -4.996699590426189 18.00038753695367 0  -3.996663149305232 18.00014373741147 0  -2.996696556251711 17.99990004450433 0  -1.997772391022766 17.99993909615769 0  -0.9987961359475327 17.99996789314391 0  0.0002051645034994236 17.99998681793376 0  0.9992057614814644 17.99999632372396 0  1.998179936188189 17.99999692219266 0  2.997100763366374 17.99998923498738 0  3.997064608196243 18.00016046665572 0  4.99709961071272 18.00033088756326 0  5.997892414589362 18.00024017659109 0  6.99862625570327 18.00015627562088 0  7.999322338900995 18.00007698006566 0  9 18 0  -9 20 0  -7.999145010178808 20.00005220717728 0  -6.998268762125998 20.00010511036068 0  -5.997349177197164 20.00015933296629 0  -4.996362525618567 20.00021534539096 0  -3.996320740370467 20.00014172549908 0  -2.996360249616711 20.00006815873061 0  -1.997532700292791 20.00009109500673 0  -0.9986448393504118 20.00011076762437 0  0.0002730251334214701 20.00012724832812 0  0.9991916939859737 20.00014084872346 0  1.998082015886467 20.00015211355479 0  2.996913827031708 20.0001618409569 0  3.996874125253643 20.00016359632932 0  4.996913873023843 20.00016466495521 0  5.997760939315976 20.00012168030681 0  6.998542467925981 20.00008017753085 0  7.999281628423331 20.00003979154312 0  8.999999999967704 19.99999999999927 0  -9 22 0  -7.999153342212749 22.00001075104683 0  -6.998285523261817 22.00002075621447 0  -5.997374720350865 22.0000291888498 0  -4.996397784839478 22.0000350587997 0  -3.99635678124617 22.00014180664515 0  -2.996396063136396 22.00024854365236 0  -1.997534838469791 22.00025617252162 0  -0.998613838275527 22.00026643532096 0  0.0003376533386675283 22.00027922472095 0  0.9992912636242343 22.00029473773644 0  1.998218682404637 22.00031347067959 0  2.997090814945588 22.00033622538649 0  3.997053352390765 22.00016445017527 0  4.99709190157776 21.99999208399706 0  5.997891172314747 21.99999725651943 0  6.99862789016948 21.99999961101533 0  7.999323952108897 22.00000022150152 0  9 22 0  -9 24 0  -7.999246165521945 23.99997227705784 0  -6.998473895267865 23.99994268930242 0  -5.997664255395645 23.99990928996532 0  -4.996797319265275 23.99986996965784 0  -3.996761896530389 24.00014336830957 0  -2.996796080812343 24.00041665358947 0  -1.997776631430001 24.00041069187408 0  -0.9987050601063698 24.00041197458938 0  0.0003938148866296106 24.00042028350743 0  0.999495872584713 24.00043572125506 0  1.998577062719465 24.00045871041185 0  2.99761278029509 24.00048999628151 0  3.997582025330011 24.00016329402613 0  4.997614598023449 23.99983604888161 0  5.998271183781483 23.99988410658008 0  6.998875679401256 23.99992602179077 0  7.999446215221821 23.99996397953486 0  9 24 0  -9 26 0  -7.999412576364053 25.99994126375136 0  -6.998811407740079 25.9998798674406 0  -5.998182426343943 25.999813069669 0  -4.99751089628668 25.99973796858733 0  -3.997484619369681 26.00014585767786 0  -2.997510015441732 26.00055355706776 0  -1.998227433494321 26.00053618282832 0  -0.998905732389203 26.0005293590371 0  0.0004372695657334657 26.00053277525768 0  0.9997842366884818 26.00054644482756 0  1.999117908948354 26.00057070515766 0  2.998420695610053 26.00060621847425 0  3.998399899991675 26.00016050492789 0  4.998423033609937 25.99971432730662 0  5.998859110873508 25.99979553364345 0  6.999259036316078 25.99986826856851 0  7.999635349717564 25.99993549162516 0  9 26 0  -9 28 0  -7.999633776191371 27.99992089266999 0  -6.999259820123806 27.99983865006865 0  -5.998870243797244 27.99975005680607 0  -4.99845681297102 27.99965173863416 0  -3.998442004127537 28.0001488253984 0  -2.998456093422323 28.00064566368239 0  -1.998835219844565 28.00061942269297 0  -0.9991918365380965 28.00060573285657 0  0.0004648904099042474 28.00060419939432 0  1.000126063537881 28.00061474857021 0  1.999782863757319 28.00063762767507 0  2.999426360218057 28.0006734052757 0  3.999417592255774 28.00015654787885 0  4.999429074231522 27.99963931708561 0  5.999591170416775 27.99974085775447 0  6.999736539527907 27.99983257231899 0  7.
[...]
<PointData  Vectors="f_44-0"> 
<DataArray  type="Float64"  Name="f_44-0"  NumberOfComponents="3" format="ascii">0.0000000000000000e+00 0.0000000000000000e+00 0.0000000000000000e+00  2.3394961599887150e-07 -1.1821501087927848e+01 0.0000000000000000e+00  3.1435707478480990e-07 -1.2669010074023090e+01 0.0000000000000000e+00  2.9825429846706534e-07 -1.1980893299856348e+01 0.0000000000000000e+00  0.0000000000000000e+00 0.0000000000000000e+00 0.0000000000000000e+00  0.0000000000000000e+00 0.0000000000000000e+00 0.0000000000000000e+00  0.0000000000000000e+00 0.0000000000000000e+00 0.0000000000000000e+00  0.0000000000000000e+00 0.0000000000000000e+00 0.0000000000000000e+00  0.0000000000000000e+00 0.0000000000000000e+00 0.0000000000000000e+00  0.0000000000000000e+00 0.0000000000000000e+00 0.0000000000000000e+00  0.0000000000000000e+00 0.0000000000000000e+00 0.0000000000000000e+00  0.0000000000000000e+00 0.0000000000000000e+00 0.0000000000000000e+00  0.0000000000000000e+00 0.0000000000000000e+00 0.0000000000000000e+00  0.0000000000000000e+00 0.0000000000000000e+00 0.0000000000000000e+00  0.0000000000000000e+00 0.0000000000000000e+00 0.0000000000000000e+00  2.3609844126004500e-07 -1.1797434567708279e+01 0.0000000000000000e+00  3.1141889681465647e-07 -1.2647824806379694e+01 0.0000000000000000e+00  2.9489537993918314e-07 -1.1961284234119852e+01 0.0000000000000000e+00  0.0000000000000000e+00 0.0000000000000000e+00 0.0000000000000000e+00  0.0000000000000000e+00 0.0000000000000000e+00 0.0000000000000000e+00  -2.1183968495710050e-02 -1.1932806196142907e+01 0.0000000000000000e+00  -2.0737388796945311e-02 -1.2657607398743414e+01 0.0000000000000000e+00  -3.6612186358293816e-02 -1.1933758744455295e+01 0.0000000000000000e+00  -1.2696531251260435e-04 5.6899705297567833e-04 0.0000000000000000e+00  -3.9337956434337337e-04 7.3311356838284445e-04 0.0000000000000000e+00  -2.5467095411843067e-04 4.5965842528987791e-04 0.0000000000000000e+00  -2.5202347992629991e-04 7.1369906671673640e-05 0.0000000000000000e+00  -1.3422601446733015e-04 -1.6141070193452140e-04 0.0000000000000000e+00  1.2087734575292954e-05 -1.5994875736059162e-04 0.0000000000000000e+00  1.6067040273264093e-04 1.6973406464308705e-05 0.0000000000000000e+00  2.3338014720125609e-04 2.8286373079147275e-04 0.0000000000000000e+00  2.5963001674358981e-04 6.6482572741652368e-04 0.0000000000000000e+00  2.4002262498603157e-04 7.9281440807457259e-04 0.0000000000000000e+00  2.6349491119100120e-04 1.1099484434661834e-03 0.0000000000000000e+00  -2.2230960140532809e-02 -1.1914363792878001e+01 0.0000000000000000e+00  -2.2048800801892181e-02 -1.2640539995882648e+01 0.0000000000000000e+00  -3.8614180457184892e-02 -1.1915715369039281e+01 0.0000000000000000e+00  0.0000000000000000e+00 0.0000000000000000e+00 0.0000000000000000e+00  0.0000000000000000e+00 0.0000000000000000e+00 0.0000000000000000e+00  -1.5161115234266604e-02 -1.1937485585076450e+01 0.0000000000000000e+00  -2.7506469832217207e-02 -1.2680226571682571e+01 0.0000000000000000e+00  -3.4787113017896568e-02 -1.1927211920604350e+01 0.0000000000000000e+00  1.0203943995374751e-03 1.7603301087962954e-03 0.0000000000000000e+00  1.4894234898120859e-04 7.8120545111452658e-04 0.0000000000000000e+00  -1.8785532426148852e-04 -2.0989540352250342e-04 0.0000000000000000e+00  -2.0398687599720812e-04 -5.7146799172329223e-04 0.0000000000000000e+00  6.0988998300185044e-05 -3.8176890514151967e-04 0.0000000000000000e+00  2.6278068381872387e-04 -8.3712414437052141e-05 0.0000000000000000e+00  3.3415319363038252e-04 6.1261671669900208e-05 0.0000000000000000e+00  9.0864473795218461e-05 5.2762860216013787e-04 0.0000000000000000e+00  -2.3933509292430510e-05 1.0991052613533207e-03 0.0000000000000000e+00  -8.9357570590418235e-05 1.1044965997833907e-03 0.0000000000000000e+00  -1.8438272857143864e-04 9.1040335180752772e-04 0.0000000000000000e+00  -1.5580532824772309e-02 -1.1912733942415402e+01 0.0000000000000000e+00  -2.7952511002230319e-02 -1.2655597293078815e+01 0.0000000000000000e+00  -3.5838009488412315e-02 -1.1901691048801707e+01 0.0000000000000000e+00  0.0000000000000000e+00 0.0000000000000000e+00 0.0000000000000000e+00  0.0000000000000000e+00 0.0000000000000000e+00 0.0000000000000000e+00  -6.6376808383605832e-03 -1.1927303722527663e+01 0.0000000000000000e+00  -1.2167293346512644e-02 -1.2671031364422296e+01 0.0000000000000000e+00  -2.4443744097959453e-02 -1.1910261156903026e+01 0.0000000000000000e+00  1.7112339894796618e-03 1.0906610989452460e-03 0.0000000000000000e+00  4.4349218654797122e-04 -5.0974890030043042e-04 0.0000000000000000e+00  1.3639225240242840e-04 -9.0105692923445003e-04 0.0000000000000000e+00  6.8419346833412760e-04 3.8314588828155220e-04 0.0000000000000000e+00  5.1505992564164352e-04 8.6066933282601945e-04 0.0000000000000000e+00  1.6039946419119778e-04 1.6592594218523999e-04 0.0000000000000000e+00  -7.3974669062289885e-05 -4.4213511658024480e-05 0.0000000000000000e+00  1.8121288396638334e-04 2.5376559034449874e-04 0.0000000000000000e+00  3.8199291898742002e-06 7.5004666803270075e-04 0.0000000000000000e+00  -4.7937202862158843e-04 2.4704658076873786e-03 0.0000000000000000e+00  -3.4686030792276638e-04 3.8675356843821986e-03 0.0000000000000000e+00  -9.6622245112391210e-03 -1.1904556705182445e+01 0.0000000000000000e+00  -1.8227417286886961e-02 -1.2652954897994148e+01 0.0000000000000000e+00  -3.1517422562532996e-02 -1.1898971167500820e+01 0.0000000000000000e+00  0.0000000000000000e+00 0.0000000000000000e+00 0.0000000000000000e+00  0.0000000000000000e+00 0.0000000000000000e+00 0.0000000000000000e+00  -3.8566469466106272e-03 -1.1932603836133548e+01 0.0000000000000000e+00  -5.8296692332613321e-03 -1.2674170195553907e+01 0.0000000000000000e+00  -2.0348668514433003e-02 -1.1916676266394068e+01 0.0000000000000000e+00  5.9861336956047381e-03 5.3192268890110564e-03 0.0000000000000000e+00  5.8482101061204583e-03 1.2531647019537340e-03 0.0000000000000000e+00  1.8655669991881516e-03 2.7614964276768380e-03 0.0000000000000000e+00  2.2043471483890152e-03 4.0240522095074723e-03 0.0000000000000000e+00  1.5587432858847681e-05 1.7315122554938617e-03 0.0000000000000000e+00  -8.8005291911589872e-04 1.3092044508481173e-03 0.0000000000000000e+00  -2.2452079109821499e-03 3.1554107174738438e-03 0.0000000000000000e+00  -2.0840442910130905e-03 3.5001705222696282e-04 0.0000000000000000e+00  -6.9764586175435220e-03 2.8683125266542363e-03 0.0000000000000000e+00  -7.3781422517202660e-03 8.3803340931297814e-03 0.0000000000000000e+00  -5.5211146100701512e-03 9.8365382055081978e-03 0.0000000000000000e+00  -6.8890436653736183e-03 -1.1907608622561641e+01 0.0000000000000000e+00  -7.0571893019253382e-03 -1.2650421014120347e+01 0.0000000000000000e+00  -2.1642965401028752e-02 -1.1898597848769990e+01 0.0000000000000000e+00  0.0000000000000000e+00 0.0000000000000000e+00 0.0000000000000000e+00  0.0000000000000000e+00 0.0000000000000000e+00 0.0000000000000000e+00  -2.1535875494324793e-03 -1.1935299033238154e+01 0.0000000000000000e+00  3.9515239084587312e-03 -1.2673560779054707e+01 0.0000000000000000e+00  1.1682130512826767e-03 -1.1915164441103604e+01 0.0000000000000000e+00  2.9284290461830773e-02 9.0522534172770360e-04 0.0000000000000000e+00  2.1967527738263985e-02 -1.8330885514771507e-03 0.0000000000000000e+00  1.3524125945191800e-02 -4.3139051223169715e-03 0.0000000000000000e+00  1.9629494580920342e-03 8.5697853154829990e-03 0.0000000000000000e+00  4.4239538836646696e-04 3.7241312301390765e-03 0.0000000000000000e+00  -1.9796447140106978e-03 2.8191198530546318e-03 0.0000000000000000e+00  -4.1851518555991972e-03 2.9066937988078338e-03 0.0000000000000000e+00  -5.4200639309982725e-03 3.2143940763761183e-03 0.0000000000000000e+00  -1.8347251331466106e-02 3.0793440012568335e-03 0.0000000000000000e+00  -2.1442770983811900e-02 1.1167885046532690e-02 0.0000000000000000e+00  -2.4427617131203491e-02 1.8758399451669544e-02 0.0000000000000000e+00  -1.4738029634277880e-02 -1.1907294807392518e+01 0.0000000000000000e+00  -7.1349430807179292e-03 -1.2650970565363714e+01 0.0000000000000000e+00  -1.3083045630508328e-02 -1.1901414502425760e+01 0.0000000000000000e+00  0.0000000000000000e+00 0.0000000000000000e+00 0.0000000000000000e+00  0.0000000000000000e+00 0.0000000000000000e+00 0.0000000000000000e+00  8.5140699754779608e-04 -1.1946094573473538e+01 0.0000000000000000e+00  1.4049378995547505e-02 -1.2682638040651966e+01 0.0000000000000000e+00  1.7915951234964353e-02 -1.1923965250256396e+01 0.0000000000000000e+00  3.6311149534320422e-02 9.7361095795486258e-03 0.0000000000000000e+00  3.9562535598043659e-02 -2.0056629628443759e-03 0.0000000000000000e+00  4.6464809281938087e-02 -1.8954452619820383e-02 0.0000000000000000e+00  1.5231328081140376e-02 2.0971535084556923e-02 0.0000000000000000e+00  4.0165572075061481e-03 2.1684981953909312e-02 0.0000000000000000e+00  -3.8640181468585820e-03 2.2856013207918018e-02 0.0000000000000000e+00  -1.0981261148722877e-02 2.0382753546158483e-02 0.0000000000000000e+00  -1.9308733129965769e-02 1.3683722717149144e-02 0.0000000000000000e+00  -3.2597038349236107e-02 -6.3688394083872364e-04 0.0000000000000000e+00  -3.7164284352497273e-02 9.2837959064581647e-03 0.0000000000000000e+00  -4.2248341290776412e-02 1.6417140384396758e-02 0.0000000000000000e+00  -2.5780462390637207e-02 -1.1910315853705677e+01 0.0000000000000000e+00  -1.2532693123057635e-02 -1.2661719269792391e+01 0.0000000000000000e+00  -1.0660177403841890e-02 -1.1912791170098444e+01 0.0000000000000000e+00  0.0000000000000000e+00 0.0000000000000000e+00 0.0000000000000000e+00  0.0000000000000000e+00 0.0000000000000000e+00 0.0000000000000000e+00  5.2075277231686621e-03 -1.1969284238069882e+01 0.0000000000000000e+00  2.5804669934076940e-02 -1.2704594961351260e+01 0.0000000000000000e+00  3.7740729175300518e-02 -1.1948110550064538e+01 0.0000000000000000e+00  4.9200655630502348e-02 1.6706440895647032e-02 0.0000000000000000e+00  5.1919897253504294e-02 5.2014668491640586e-03 0.0000000000000000e+00  5.3345420898273231e-02 -3.0517831811977566e-03 0.0000000000000000e+00  4.4715236874180782e-02 4.7835458193307125e-02 0.0000000000000000e+00  2.0576703692197350e-02 5.1815807767774474e-02 0.0000000000000000e+00  -9.8903544067741804e-04 5.3951813995653991e-02 0.0000000000000000e+00  -2.0788466994995647e-02 5.2220527458569116e-02 0.0000000000000000e+00  -3.8413976228868114e-02 4.8460685993109695e-02 0.0000000000000000e+00  -5.1035113393589092e-02 -7.8285182956576455e-03 0.0000000000000000e+00  -5.3619893623792964e-02 4.0548409494034010e-03 0.0000000000000000e+00  -5.5041460245461638e-02 1.7034065783511795e-02 0.0000000000000000e+00  -4.6070117207984047e-02 -1.1936857098040466e+01 0.0000000000000000e+00  -1.9716399138932118e-02 -1.2685626633179442e+01 0.0000000000000000e+00  -1.2103459163608709e-02 -1.1938892241259261e+01 0.0000000000000000e+00  0.0000000000000000e+00 0.0000000000000000e+00 0.0000000000000000e+00  0.0000000000000000e+00 0.0000000000000000e+00 0.0000000000000000e+00  1.0040210245460673e-02 -1.2006691718375166e+01 0.0000000000000000e+00  3.7599527309989098e-02 -1.2741343887465208e+01 0.0000000000000000e+00  5.6224667845058987e-02 -1.1988839744299288e+01 0.0000000000000000e+00  6.6851730578296742e-02 1.9639241449074342e-02 0.0000000000000000e+00  6.9574706639778730e-02 9.7687214679922120e-03 0.0000000000000000e+00  7.0845223466500074e-02 -3.1631211247276571e-04 0.0000000000000000e+00  5.8538460124922496e-02 1.0331092727461488e-01 0.0000000000000000e+00  2.7896092552614056e-02 1.0249386400377491e-01 0.0000000000000000e+00  -1.1832098655053282e-03 1.0329926415200560e-01 0.0000000000000000e+00  -2.9633697112098904e-02 1.0164282281307845e-01 0.0000000000000000e+00  -5.9592415632406651e-02 1.0010750438615251e-01 0.0000000000000000e+00  -6.9574364637487215e-02 -9.4949034763465792e-03 0.0000000000000000e+00  -7.2015102191613833e-02 1.0888824081157688e-03 0.0000000000000000e+00  -7.3072461066707450e-02 1.0896712466819952e-02 0.0000000000000000e+00  -6.5342830295972390e-02 -1.1981224753071478e+01 0.0000000000000000e+00  -3.0484272337296864e-02 -1.2725920455421347e+01 0.0000000000000000e+00  -1.3726106922021765e-02 -1.1979597229554830e+01 0.0000000000000000e+00  0.0000000000000000e+00 0.0000000000000000e+00 0.0000000000000000e+00  0.0000000000000000e+00 0.0000000000000000e+00 0.0000000000000000e+00  1.4144446261591696e-02 -1.2056379385988008e+01 0.0000000000000000e+00  4.6973790256389064e-02 -1.2790582840971254e+01 0.0000000000000000e+00  6.9922054484443330e-02 -1.2043085506261457e+01 0.0000000000000000e+00  8.1168306897043324e-02 1.8349507345535292e-02 0.0000000000000000e+00  8.3363455930590968e-02 1.1979061294002455e-02 0.0000000000000000e+00  8.3024516769732770e-02 5.9969988974200731e-03 0.0000000000000000e+00  7.1445311266453149e-02 1.6776921534441996e-01 0.0000000000000000e+00  3.4117683161665587e-02 1.6521912704846706e-01 0.0000000000000000e+00  -1.5782401502415062e-03 1.6631503831291972e-01 0.0000000000000000e+00  -3.6855764835631390e-02 1.6572640753077839e-01 0.0000000000000000e+00  -7.4293629611525858e-02 1.6800815238405711e-01 0.0000000000000000e+00  -8.5067470343415566e-02 -7.5977255842316401e-03 0.0000000000000000e+00  -8.7192666207118921e-02 -1.0124755990057676e-03 0.0000000000000000e+00  -8.6807706538591836e-02 5.2590005293866636e-03 0.0000000000000000e+00  -8.1190231879007799e-02 -1.2039623958765919e+01 0.0000000000000000e+00  -4.1782680276414658e-02 -1.2778351280784365e+01 0.0000000000000000e+00  -1.7124852946601935e-02 -1.2031808169244009e+01 0.0000000000000000e+00  0.0000000000000000e+00 0.0000000000000000e+00 0.0000000000000000e+00  0.0000000000000000e+00 0.0000000000000000e+00 0.0000000000000000e+00  1.6607767906926231e-02 -1.2113701834329857e+01 0.0000000000000000e+00  5.2056179396611960e-02 -1.2847408284919531e+01 0.0000000000000000e+00  7.6380144330865915e-02 -1.2105235744718458e+01 0.0000000000000000e+00  8.8125640158061708e-02 1.4361083158457546e-02 0.0000000000000000e+00  8.9730601791476614e-02 1.3097468918367874e-02 0.0000000000000000e+00  8.8606485461314208e-02 1.2139428454259964e-02 0.0000000000000000e+00  7.6048795402458458e-02 2.4604221871617779e-01 0.0000000000000000e+00  3.6472187342805260e-02 2.3870814141816687e-01 0.0000000000000000e+00  -2.0582010522468778e-03 2.3860848575242619e-01 0.0000000000000000e+00  -4.0308708629243808e-02 2.3910706506233126e-01 0.0000000000000000e+00  -8.1492599457388959e-02 2.4619996727802412e-01 0.0000000000000000e+00  -9.3046859474026605e-02 -3.1209686247534950e-03 0.0000000000000000e+00  -9.4558276824085463e-02 -1.6191010671456516e-03 0.0000000000000000e+00  -9.3292048129552316e-02 -3.8521850618142614e-04 0.0000000000000000e+00  -8.9193363193056319e-02 -1.2106178360557269e+01 0.0000000000000000e+00  -4.9822028814621347e-02 -1.2838392335026050e+01 0.0000000000000000e+00  -2.1235446463663453e-02 -1.2091032066141537e+01 0.0000000000000000e+00  -3.4440964565763906e-11 -6.0442618624078613e-11 0.0000000000000000e+00  0.0000000000000000e+00 0.0000000000000000e+00 0.0000000000000000e+00  1.6924155770121765e-02 -1.2172613874914953e+01 0.0000000000000000e+00  5.1859746424317794e-02 -1.2905710070115269e+01 0.0000000000000000e+00  7.4408953170930478e-02 -1.2168527938752174e+01 0.0000000000000000e+00  8.5840432636315744e-02 8.9166434735102676e-03 0.0000000000000000e+00  8.6818110332919626e-02 1.3073481732948965e-02 0.0000000000000000e+00  8.5127454055675442e-02 1.7458575724127848e-02 0.0000000000000000e+00  7.2595764332627211e-02 3.2573284259470414e-01 0.0000000000000000e+00  3.4866194116435836e-02 3.1372815833978790e-01 0.0000000000000000e+00  -2.4146771575987154e-03 3.1262751655530446e-01 0.0000000000000000e+00  -3.9571260911244466e-02 3.1425449263408339e-01 0.0000000000000000e+00  -8.0183794247779550e-02 3.2628781331924295e-01 0.0000000000000000e+00  -9.1558097181909687e-02 2.7738771494136226e-03 0.0000000000000000e+00  -9.2443733346260423e-02 -1.2097270931382554e-03 0.0000000000000000e+00  -9.0650406667255837e-02 -5.4226900157732499e-03 0.0000000000000000e+00  -8.8005022767883800e-02 -1.2173865027860812e+01 0.0000000000000000e+00  -5.2299992571145454e-02 -1.2899765575678023e+01 0.0000000000000000e+00  -2.4189403292643158e-02 -1.2151683015739003e+01 0.0000000000000000e+00  0.0000000000000000e+00 0.0000000000000000e+00 0.0000000000000000e+00  0.0000000000000000e+00 0.0000000000000000e+00 0.0000000000000000e+00  1.4962338272977410e-02 -1.2226692546069280e+01 0.0000000000000000e+00  4.6248785782452076e-02 -1.2959118924954952e+01 0.0000000000000000e+00  6.4074003740080793e-02 -1.2226038391199159e+01 0.0000000000000000e+00  7.4086933934894267e-02 2.9714860489426088e-03 0.0000000000000000e+00  7.4405442522310100e-02 1.2144063753689685e-02 0.0000000000000000e+00  7.2451972882701679e-02 2.1488808505076295e-02 0.0000000000000000e+00  6.1131658871315664e-02 3.9908663188633570e-01 0.0000000000000000e+00  2.9371621048744440e-02 3.8261630976062017e-01 0.0000000000000000e+00  -2.6877094161915139e-03 3.8047397992342508e-01 0.0000000000000000e+00  -3.4727003665951245e-02 3.8306306552304342e-01 0.0000000000000000e+00  -7.0413278780789526e-02 3.9970227124720503e-01 0.0000000000000000e+00  -8.0398932511494173e-02 9.0668318866642793e-03 0.0000000000000000e+00  -8.0642094356188701e-02 1.0388088251468787e-05 0.0000000000000000e+00  -7.8599142955623300e-02 -9.2102090906941714e-03 0.0000000000000000e+00  -7.7728062305404855e-02 -1.2235483443896195e+01 0.0000000000000000e+00  -4.8554618161927646e-02 -1.2955876179701216e+01 0.0000000000000000e+00  -2.4744961838983854e-02 -1.2207492792815382e+01 0.0000000000000000e+00  0.0000000000000000e+00 0.0000000000000000e+00 0.0000000000000000e+00  0.0000000000000000e+00 0.0000000000000000e+00 0.0000000000000000e+00  1.0912331673268239e-02 -1.2269999445958867e+01 0.0000000000000000e+00  3.5802628535750898e-02 -1.3001795518610617e+01 0.0000000000000000e+00  4.6498277439428241e-02 -1.2271493813987009e+01 0.0000000000000000e+00  5.4000409673323931e-02 -2.6572549236225408e-03 0.0000000000000000e+00  5.3676698368479978e-02 1.0532036007217511e-02 0.0000000000000000e+00  5.1709155000299871e-02 2.3834968760787299e-02 0.0000000000000000e+00  4.2897512450433363e-02 4.5800294334546943e-01 0.0000000000000000e+00  2.0547208668372032e-02 4.3788826641152878e-01 0.0000000000000000e+00  -2.8741595664363356e-03 4.3485886424380538e-01 0.0000000000000000e+00  -2.6338466305399082e-02 4.3817569481724172e-01 0.0000000000000000e+00  -5.3363567012611461e-02 4.5857964861572204e-01 0.0000000000000000e+00  -6.0714825768073376e-02 1.4936140940165389e-02 0.0000000000000000e+00  -6.0334282880625242e-02 1.8140138763715625e-03 0.0000000000000000e+00  -5.8299365572391640e-02 -1.1414471608768840e-02 0.0000000000000000e+00  -5.9587504708535077e-02 -1.2284586207443343e+01 0.0000000000000000e+00  -3.9053081353655775e-02 -1.3000823556832112e+01 0.0000000000000000e+00  -2.2495278098002350e-02 -1.2252553071723638e+01 0.0000000000000000e+00  0.0000000000000000e+00 0.0000000000000000e+00 0.0000000000000000e+00  0.0000000000000000e+00 0.0000000000000000e+00 0.0000000000000000e+00  5.2084577046016085e-03 -1.2297773670939227e+01 0.0000000000000000e+00  2.1651918854487473e-02 -1.3029079439700061e+01 0.0000000000000000e+00  2.3605614035650865e-02 -1.2299947597881868e+01 0.0000000000000000e+00  2.7749161195153183e-02 -7.3249980349683773e-03 0.0000000000000000e+00  2.6837767463265858e-02 8.4536065838418471e-03 0.0000000000000000e+00  2.5065876320210352e-02 2.4289459709403823e-02 0.0000000000000000e+00  1.9842176616953634e-02 4.9616158891274392e-01 0.0000000000000000e+00  9.3405822614847644e-03 4.7362544191380013e-01 0.0000000000000000e+00  -2.9757207830672706e-03 4.6996919559879913e-01 0.0000000000000000e+00  -1.5356848271642846e-02 4.7370819702620515e-01 0.0000000000000000e+00  -3.0948830981535811e-02 4.9662376417560999e-01 0.0000000000000000e+00  -3.4682837227678100e-02 1.9735068252572152e-02 0.0000000000000000e+00  -3.3732978534889199e-02 3.9774329779914339e-03 0.0000000000000000e+00  -3.1915295175090889e-02 -1.1828159605928