<?xml version="1.0"?>
<VTKFile type="UnstructuredGrid"  version="0.1"  >
<UnstructuredGrid>
<Piece  NumberOfPoints="589" NumberOfCells="1080">
<Points>
<DataArray  type="Float64"  NumberOfComponents="3"  format="ascii">-9 0 0  -8 0 0  -7 0 0  -6 0 0  -5 0 0  -4 0 0  -3 0 0  -2 0 0  -1 0 0  0 0 0  1 0 0  2 0 0  3 0 0  4 0 0  5 0 0  6 0 0  7 0 0  8 0 0  9 0 0  -9 2 0  -8.000007852821469 1.999988380897562 0  -7.000016481329592 1.999978171177705 0  -6.000027685083761 1.999970512507475 0  -5.000045557581072 1.99996589699553 0  -4.000027251895619 1.999974585887944 0  -3.000008373081769 1.999982703217602 0  -1.999999076130375 1.999990267959716 0  -0.9999973367891606 1.999996243615327 0  -3.169449673186927e-07 1.999998868494658 0  0.9999963574972552 1.999997073582926 0  1.999996930279413 1.999991296275778 0  3.000004256583907 1.999984204356449 0  4.000019226303222 1.999976610847627 0  5.000040849389946 1.999973514254521 0  6.00002464512843 1.999974669607208 0  7.000014646032326 1.99998048192301 0  8.000006988400136 1.999989440116388 0  9 2 0  -9 4 0  -8.000012602710751 3.999971125031034 0  -7.000022661702495 3.999946138729809 0  -6.000028695094914 3.999928852692292 0  -5.000031020155068 3.999922907323846 0  -4.000004505997033 3.999926920101589 0  -2.999986617754625 3.999949597665987 0  -1.999981724894027 3.999979107051636 0  -0.9999881099101927 4.000002833747662 0  -6.441529998912442e-07 4.000012415305686 0  0.9999865436268358 4.000004999189756 0  1.999979222070125 3.999984903320938 0  2.999983158333203 3.999957692257834 0  4.000000094217731 3.999930352451837 0  5.000025785984858 3.999921259067088 0  6.000024469399096 3.99993071186427 0  7.000019925995689 3.999948381154559 0  8.000011299546609 3.999972474321381 0  9 4 0  -9 6 0  -8.00002752652729 5.999938318212584 0  -7.000044944411326 5.999883308659293 0  -6.000044538475414 5.999841833488797 0  -5.000024092669613 5.99982047800646 0  -3.999972592932242 5.999854030742881 0  -2.999949034743417 5.999924090519706 0  -1.99995796870878 5.999997516377526 0  -0.9999806442462065 6.000038348965323 0  -3.589085515592595e-06 6.000046582873775 0  0.9999758292223042 6.000033387796138 0  1.999960233573956 5.999996874230924 0  2.999954562753802 5.999935202473698 0  3.999966916930378 5.999871278441674 0  5.000010821485244 5.999839697543384 0  6.000037200915157 5.999853891310957 0  7.000041537150709 5.999890588522852 0  8.000026301613493 5.999941781949409 0  9 6 0  -9 8 0  -8.000082874137668 7.99987883952932 0  -7.000138515955476 7.999766359409962 0  -6.000140537646005 7.999674353626662 0  -5.000066327719243 7.99962227189668 0  -3.99996699813975 7.99977700961219 0  -2.999985043645603 7.999958793115732 0  -2.000022037725268 8.000047397787522 0  -1.000024982554705 8.000057540894552 0  -2.61315957766644e-06 8.000060494837758 0  1.000014206645159 8.000069362529695 0  2.000007635717756 8.000032435773683 0  2.999964858962317 7.999969501655396 0  3.999950657020069 7.999813737818493 0  5.000048238739863 7.999637994107252 0  6.000138092218402 7.999687082170301 0  7.000141420455646 7.999774830312668 0  8.000085555151021 7.999883005674046 0  9 8 0  -9 10 0  -8.000247065169328 9.999784708672999 0  -7.000446476435177 9.999567619927975 0  -6.000541375548698 9.999347354214301 0  -5.000452533656599 9.9991235282417 0  -4.000295297503221 9.999622624195684 0  -3.000320595283285 10.00005176900404 0  -2.000256337452784 9.999978013305569 0  -1.000117891826922 9.999954343618283 0  -1.582863095968827e-05 9.999948569367717 0  1.000085401047822 9.999949003457536 0  2.000219995538873 9.99994628117669 0  3.000338805430919 10.00010021120019 0  4.000324447371019 9.999693602821496 0  5.000502862553164 9.999157164150438 0  6.000584900872501 9.999365774416543 0  7.000477962114375 9.999577442468704 0  8.000263492256302 9.99978900381357 0  9 10 0  -9 12 0  -8.00060147459439 11.99969791503578 0  -7.001171837182033 11.99938183712635 0  -6.001675924069778 11.99903502888788 0  -5.002070106044296 11.99863414884011 0  -4.001990026545186 11.99954335437232 0  -3.002062475278544 12.00044346379388 0  -2.001415506045259 12.00033443429562 0  -1.000696575053905 12.00027539085827 0  4.954962789605483e-05 12.000263791658 0  1.000803045333404 12.00030149781398 0  2.0015472343509 12.00039948274555 0  3.002248860259046 12.00058523510405 0  4.002171833053562 11.99961047121578 0  5.002222975372038 11.99862764254705 0  6.001786715731156 11.99903256128543 0  7.001244176502369 11.99938068167848 0  8.000637242385867 11.99969738672069 0  9 12 0  -9 14 0  -8.001079513040983 13.99966725975818 0  -7.002160989930241 13.99931926390244 0  -6.003247850333445 13.99893941168335 0  -5.004347227237409 13.99850846484831 0  -4.004358889243183 13.99957012735102 0  -3.004365218127854 14.00064524808217 0  -2.002864067767987 14.00049121918118 0  -1.001384710246803 14.00040693311159 0  8.563851820856632e-05 14.00038204259579 0  1.001559120046076 14.00041318439335 0  2.003047010014714 14.00050205746841 0  3.004558254285916 14.00065349933028 0  4.004570275624411 13.99957182581846 0  5.004576668195202 13.99849688418097 0  6.00341166765247 13.99892718987009 0  7.002266810022525 13.99930996992079 0  8.001131501942618 13.99966234895122 0  9 14 0  -9 16 0  -8.00154857974182 15.99969773753793 0  -7.003126770087954 15.9993843503231 0  -6.004766751400179 15.99904852506545 0  -5.006505943019257 15.99867875076821 0  -4.006568059142841 15.99958339210078 0  -3.006509505107521 16.00048321629142 0  -2.004228350944033 16.00036993050989 0  -1.002038076983332 16.00030161630399 0  0.0001092472312963825 16.00027681738632 0  1.002258911789587 16.00029458866278 0  2.004456216463569 16.00035499883402 0  3.006749362795838 16.0004589002114 0  4.006815114648951 15.99954338677457 0  5.006757613446201 15.99862717661147 0  6.004952702095229 15.99901236090721 0  7.00324921752372 15.99936117033387 0  8.001609326818206 15.99968638531886 0  9 16 0  -9 18 0  -8.001898029945416 17.99977274290423 0  -7.003843279346089 17.99953930429201 0  -6.005885424549771 17.99929362115466 0  -5.008079025504744 17.99902989115222 0  -4.008172543343962 17.99958627073799 0  -3.00808249866719 18.00014192825768 0  -2.005232818450434 18.00006950241103 0  -1.002521375612412 18.00002300093125 0  0.0001234307618932766 18.00000206547823 0  1.002769720490569 18.00000617460431 0  2.005485520120172 18.00003468091392 0  3.008342091669741 18.00008667591489 0  4.008437440955377 17.99952221087583 0  5.008346645795772 17.99895941364937 0  6.00608421313993 17.99924331237235 0  7.003974852411655 17.99950692136003 0  8.001963526337843 17.9997568857248 0  9 18 0  -9 20 0  -8.002057514113584 19.9998724555419 0  -7.004170051895555 19.99974326379784 0  -6.006394733287372 19.99961096645502 0  -5.008792868463048 19.99947447530457 0  -4.008899397860215 19.99958616782626 0  -3.00879428158893 19.99969705097013 0  -2.005688505184304 19.99966591514796 0  -1.002740089453128 19.99964267704127 0  0.0001316017124290279 19.99962769054817 0  1.003004289035962 19.99962070856013 0  2.005955657160013 19.99962090417161 0  3.009066245407018 19.99962681954473 0  4.009173466190367 19.99951170313621 0  5.00906767793544 19.99939771289401 0  6.006599516999886 19.99955550036681 0  7.004305935513314 19.99970728801731 0  8.002125262717531 19.99985476782568 0  8.999999999991825 19.9999999999934 0  -9 22 0  -8.001995898585317 21.99997873599019 0  -7.00404611072751 21.99995964002073 0  -6.006206646244061 21.99994508972381 0  -5.008536891276897 21.99993788554115 0  -4.008641082678429 21.99958185177302 0  -3.008537848613908 21.99922490271803 0  -2.005518968700327 21.99923091367841 0  -1.002653894259357 21.99922954076685 0  0.0001357851835058372 21.99922149186433 0  1.002926113748444 21.99920671107466 0  2.005793116138975 21.9991843933601 0  3.008815147014718 21.99915297077299 0  4.008918112502045 21.99950833356943 0  5.008812720274261 21.9998643130644 0  6.006412741070812 21.99989167259395 0  7.004183123113457 21.99992486308141 0  8.002064283934082 21.99996159786075 0  9 22 0  -9 24 0  -8.001715996740575 24.00007634455416 0  -7.00347869139723 24.00015783177355 0  -6.005336087238639 24.00024981909715 0  -5.007338712675832 24.00035810136395 0  -4.007428515658825 23.99957355000585 0  -3.007340415373624 23.99878816248564 0  -2.004738304194761 23.99882528142064 0  -1.002268007322878 23.9988429517613 0  0.0001374716660268244 23.99884206250274 0  1.002543340686804 23.99882269116304 0  2.005014795857295 23.99878410750088 0  3.007618800149118 23.99872476830901 0  4.007704728047991 23.99951018087887 0  5.00761231620007 24.0002959205324 0  6.005540914995535 24.00020449362883 0  7.00361505030965 24.00012823966851 0  8.001784110413071 24.00006173606972 0  9 24 0  -9 26 0  -8.001248129221862 26.00015340322551 0  -7.002530147248421 26.00031404196267 0  -6.003880865420607 26.00048936617683 0  -5.005336755177536 26.00068726956908 0  -4.005403018820999 25.99956180346388 0  -3.005339995319922 25.99843568094527 0  -2.003434324789685 25.9984970715984 0  -1.001624635579992 25.99853023001805 0  0.000137766900767261 25.99853618552646 0  1.001900364217945 25.99851513420136 0  2.003710626992903 25.99846643965695 0  3.005617218080973 25.99838863113575 0  4.005676702895546 25.99951548735715 0  5.005606814189475 26.00064246063192 0  6.004083364010051 26.00045662048385 0  7.00266510944687 26.00029262171578 0  8.001315590795809 26.00014281594509 0  9 26 0  -9 28 0  -8.000643343266599 28.00020154385123 0  -7.0013043156266 28.00041152429283 0  -6.002001071349131 28.00063859434886 0  -5.002752558920789 28.00089184685337 0  -4.002789032874998 27.99954770217148 0  -3.002757588716492 27.99820320469557 0  -2.001750281625631 27.99828140112243 0  -1.00079386573212 27.99832592455247 0  0.0001374550620588116 27.99833793269172 0  1.001068835324149 27.99831773662903 0  2.002025415688832 27.9982647999783 0  3.003032949807096 27.99817773793501 0  4.003060028537574 27.99952304102488 0  5.003019330392964 28.00086837801058 0  6.002201344381629 28.00062140702644 0  7.001437910359121 28.00040026279816 0  8.0007101583
[...]
<PointData  Vectors="f_44-0"> 
<DataArray  type="Float64"  Name="f_44-0"  NumberOfComponents="3" format="ascii">0.0000000000000000e+00 0.0000000000000000e+00 0.0000000000000000e+00  1.7507653773556758e-07 -5.5458583144996663e+00 0.0000000000000000e+00  2.3433934703125182e-07 -5.5114261585716644e+00 0.0000000000000000e+00  4.7138431540409582e-07 -5.0656133588876777e+00 0.0000000000000000e+00  0.0000000000000000e+00 0.0000000000000000e+00 0.0000000000000000e+00  0.0000000000000000e+00 0.0000000000000000e+00 0.0000000000000000e+00  0.0000000000000000e+00 0.0000000000000000e+00 0.0000000000000000e+00  0.0000000000000000e+00 0.0000000000000000e+00 0.0000000000000000e+00  0.0000000000000000e+00 0.0000000000000000e+00 0.0000000000000000e+00  0.0000000000000000e+00 0.0000000000000000e+00 0.0000000000000000e+00  0.0000000000000000e+00 0.0000000000000000e+00 0.0000000000000000e+00  0.0000000000000000e+00 0.0000000000000000e+00 0.0000000000000000e+00  0.0000000000000000e+00 0.0000000000000000e+00 0.0000000000000000e+00  0.0000000000000000e+00 0.0000000000000000e+00 0.0000000000000000e+00  0.0000000000000000e+00 0.0000000000000000e+00 0.0000000000000000e+00  1.7982706177540117e-07 -5.5614011754117367e+00 0.0000000000000000e+00  2.3710810750333199e-07 -5.5260647025850353e+00 0.0000000000000000e+00  4.7404822562124928e-07 -5.0778606077733324e+00 0.0000000000000000e+00  0.0000000000000000e+00 0.0000000000000000e+00 0.0000000000000000e+00  0.0000000000000000e+00 0.0000000000000000e+00 0.0000000000000000e+00  -1.3363630613651596e-02 -5.2389357297694872e+00 0.0000000000000000e+00  3.1884867110606651e-03 -5.5107714918873691e+00 0.0000000000000000e+00  3.2441453869548859e-02 -5.2505320110079898e+00 0.0000000000000000e+00  1.7736618024123407e-03 -4.4444357473192816e-04 0.0000000000000000e+00  1.8985665815495663e-03 -1.0435519760960323e-03 0.0000000000000000e+00  1.0377223975649894e-03 -6.0916070988826371e-04 0.0000000000000000e+00  7.7338547773966187e-04 1.1955714481205545e-04 0.0000000000000000e+00  4.4408799694654400e-04 5.1241280440651792e-04 0.0000000000000000e+00  1.7583417887727864e-04 4.1159696472526589e-04 0.0000000000000000e+00  -9.9800792720961586e-05 -1.3640386580956997e-05 0.0000000000000000e+00  -3.1497875176878648e-04 -5.6230931093674032e-04 0.0000000000000000e+00  -6.3352310695262307e-04 -1.3976896302261997e-03 0.0000000000000000e+00  -1.0999839086983259e-03 -1.5867636390844513e-03 0.0000000000000000e+00  -1.8891186168559452e-03 -2.7478970964991078e-03 0.0000000000000000e+00  -1.3866365068323686e-02 -5.2528996729927000e+00 0.0000000000000000e+00  3.3818610644810103e-03 -5.5253755744241646e+00 0.0000000000000000e+00  3.2406559157219052e-02 -5.2649085636676700e+00 0.0000000000000000e+00  0.0000000000000000e+00 0.0000000000000000e+00 0.0000000000000000e+00  0.0000000000000000e+00 0.0000000000000000e+00 0.0000000000000000e+00  1.3975581284456957e-02 -5.2484236821926622e+00 0.0000000000000000e+00  -6.3335526761143209e-03 -5.4921638264941270e+00 0.0000000000000000e+00  1.4129374515234916e-02 -5.2520431400899792e+00 0.0000000000000000e+00  -1.4566010701219216e-03 -2.0810437660975451e-03 0.0000000000000000e+00  -9.6022864309397785e-05 1.6131970716605154e-04 0.0000000000000000e+00  1.9513696478715270e-04 1.9240151178877057e-03 0.0000000000000000e+00  8.3829532052285489e-05 1.9813236904963820e-03 0.0000000000000000e+00  -3.9236725026581281e-04 8.6586262209968406e-04 0.0000000000000000e+00  -5.5205699551693103e-04 -1.4106088872543635e-04 0.0000000000000000e+00  -3.9579463633468561e-04 -2.8671357783397101e-04 0.0000000000000000e+00  3.9791231191281783e-04 -9.0464942156693034e-04 0.0000000000000000e+00  5.3483569556083646e-04 -1.5841326991507052e-03 0.0000000000000000e+00  1.6598494748454104e-04 -7.5977322492821293e-04 0.0000000000000000e+00  -3.1701631420517912e-04 2.2638503286130665e-04 0.0000000000000000e+00  1.3948253057515677e-02 -5.2621316367495252e+00 0.0000000000000000e+00  -6.5559401190302992e-03 -5.5059193039706464e+00 0.0000000000000000e+00  1.3260755192268379e-02 -5.2657546678140985e+00 0.0000000000000000e+00  0.0000000000000000e+00 0.0000000000000000e+00 0.0000000000000000e+00  0.0000000000000000e+00 0.0000000000000000e+00 0.0000000000000000e+00  1.4268405140910640e-02 -5.2517274783208183e+00 0.0000000000000000e+00  -4.1642804396971019e-03 -5.4926370062331529e+00 0.0000000000000000e+00  1.3972451341185715e-02 -5.2491793776372804e+00 0.0000000000000000e+00  -3.3111582084975172e-03 2.3219042841787843e-03 0.0000000000000000e+00  -1.7389992983772716e-03 5.2472981808613043e-03 0.0000000000000000e+00  -1.6637039744261816e-03 4.2581833748770118e-03 0.0000000000000000e+00  -2.7107132487704287e-03 -8.1643563981963717e-04 0.0000000000000000e+00  -1.6683113042170877e-03 -3.1149686543382482e-03 0.0000000000000000e+00  -1.9390842129070085e-04 -1.6161839868414989e-03 0.0000000000000000e+00  9.4932417648482435e-04 -7.5101056340520333e-04 0.0000000000000000e+00  7.4153715682862616e-04 -4.8626577084075380e-04 0.0000000000000000e+00  1.3481665652437819e-03 4.8255055802401346e-05 0.0000000000000000e+00  2.1582406955388033e-03 -2.4371486969135760e-03 0.0000000000000000e+00  4.7555488822548881e-04 -5.1145868492497078e-03 0.0000000000000000e+00  1.6452419683076858e-02 -5.2640258903992514e+00 0.0000000000000000e+00  -3.7824414027838519e-03 -5.5047663667114159e+00 0.0000000000000000e+00  1.2676222687198717e-02 -5.2621119407171548e+00 0.0000000000000000e+00  0.0000000000000000e+00 0.0000000000000000e+00 0.0000000000000000e+00  0.0000000000000000e+00 0.0000000000000000e+00 0.0000000000000000e+00  1.3639222563513726e-02 -5.2526124281822328e+00 0.0000000000000000e+00  -4.6526103816623109e-03 -5.4956627586075300e+00 0.0000000000000000e+00  1.3067866723249956e-02 -5.2578032959744174e+00 0.0000000000000000e+00  -1.2785981579934432e-02 -2.0386319855568175e-03 0.0000000000000000e+00  -1.4973495745816518e-02 3.1943571053968255e-03 0.0000000000000000e+00  -5.1039865759896896e-03 -5.4282843240008281e-03 0.0000000000000000e+00  -4.7338415346684934e-03 -1.0867071635220899e-02 0.0000000000000000e+00  5.9870357832154171e-04 -5.8805696321314344e-03 0.0000000000000000e+00  2.2274695411709589e-03 -5.0313502759610565e-03 0.0000000000000000e+00  5.2711898170754836e-03 -1.0116531388928445e-02 0.0000000000000000e+00  4.9726401715072185e-03 -1.7401951914139823e-03 0.0000000000000000e+00  1.8736060627296849e-02 -6.3585111276074375e-03 0.0000000000000000e+00  2.0215687049433065e-02 -1.5970942900824344e-02 0.0000000000000000e+00  1.2527947052230787e-02 -1.4547436800486162e-02 0.0000000000000000e+00  1.7357962075334295e-02 -5.2624324734230346e+00 0.0000000000000000e+00  -1.7928666280209425e-03 -5.5024062362900779e+00 0.0000000000000000e+00  1.3588038174541959e-02 -5.2592421103866718e+00 0.0000000000000000e+00  0.0000000000000000e+00 0.0000000000000000e+00 0.0000000000000000e+00  0.0000000000000000e+00 0.0000000000000000e+00 0.0000000000000000e+00  1.2163346231220657e-02 -5.2484140539588893e+00 0.0000000000000000e+00  -1.0210421622375615e-02 -5.4894223597987724e+00 0.0000000000000000e+00  -9.7755314991030437e-04 -5.2454180182459558e+00 0.0000000000000000e+00  -5.6460563235006513e-02 2.1700979535833168e-02 0.0000000000000000e+00  -4.3720997872525307e-02 1.4625322994988085e-02 0.0000000000000000e+00  -2.3525373950644225e-02 8.6819386760124042e-03 0.0000000000000000e+00  1.8667275968251189e-03 -1.9717922140938447e-02 0.0000000000000000e+00  1.9898861264874760e-03 -7.7416533403646274e-03 0.0000000000000000e+00  5.1328201733180289e-03 -5.5314525398135958e-03 0.0000000000000000e+00  7.9220573076879720e-03 -5.9225653096677865e-03 0.0000000000000000e+00  7.1374604740607073e-03 -6.5969829889188387e-03 0.0000000000000000e+00  3.7742433059397777e-02 -1.0925644906937383e-02 0.0000000000000000e+00  4.6215815141065118e-02 -1.9953527344293218e-02 0.0000000000000000e+00  4.8057348984811912e-02 -2.3509458733617143e-02 0.0000000000000000e+00  2.5784471420755226e-02 -5.2576588482518583e+00 0.0000000000000000e+00  -9.8622217749391820e-05 -5.4978813849268393e+00 0.0000000000000000e+00  1.3918612639447435e-02 -5.2551797186027684e+00 0.0000000000000000e+00  0.0000000000000000e+00 0.0000000000000000e+00 0.0000000000000000e+00  0.0000000000000000e+00 0.0000000000000000e+00 0.0000000000000000e+00  1.2345303922664065e-02 -5.2428649330995691e+00 0.0000000000000000e+00  -9.5513785651031181e-03 -5.4833172956272591e+00 0.0000000000000000e+00  3.9878456436731047e-03 -5.2416471168918966e+00 0.0000000000000000e+00  -2.8498818176876831e-02 1.3793303487851714e-02 0.0000000000000000e+00  -3.8550740785588421e-02 1.6832806985998133e-02 0.0000000000000000e+00  -5.2958113056451032e-02 3.2442994154548807e-02 0.0000000000000000e+00  -2.0831742038244307e-02 -2.7517081845760578e-02 0.0000000000000000e+00  -7.2162570268675449e-03 -2.7290928077278030e-02 0.0000000000000000e+00  2.6987202427115496e-03 -2.4954529205124996e-02 0.0000000000000000e+00  9.5610834902431063e-03 -2.5206676189234414e-02 0.0000000000000000e+00  8.9852042738613001e-03 -2.8346604511949772e-02 0.0000000000000000e+00  1.9601183634593015e-02 -1.6262460208806648e-02 0.0000000000000000e+00  3.3316120499842866e-02 -1.2986991772119330e-02 0.0000000000000000e+00  4.4618992911244645e-02 -2.4562772656758010e-03 0.0000000000000000e+00  2.7448815622216724e-02 -5.2546937815876307e+00 0.0000000000000000e+00  -1.8516296414350752e-03 -5.4940965818305738e+00 0.0000000000000000e+00  1.3136747974192996e-02 -5.2513166985250379e+00 0.0000000000000000e+00  0.0000000000000000e+00 0.0000000000000000e+00 0.0000000000000000e+00  0.0000000000000000e+00 0.0000000000000000e+00 0.0000000000000000e+00  1.2915409491751179e-02 -5.2373438015064409e+00 0.0000000000000000e+00  -8.6538019429027984e-03 -5.4776873856603130e+00 0.0000000000000000e+00  5.5741579447396144e-03 -5.2358878898410586e+00 0.0000000000000000e+00  3.0521225695954524e-03 3.8889465177220775e-04 0.0000000000000000e+00  -3.2463584575348130e-03 -1.1727222488399356e-03 0.0000000000000000e+00  -6.6574339473216030e-03 -1.0797908057446190e-02 0.0000000000000000e+00  -3.1244642324800027e-03 -3.8811472580296873e-02 0.0000000000000000e+00  -4.6367265362519546e-04 -3.8337714272109365e-02 0.0000000000000000e+00  2.8860211933875585e-03 -3.7086931647761959e-02 0.0000000000000000e+00  6.7364942988485371e-03 -3.6610522254157389e-02 0.0000000000000000e+00  9.3034630991042574e-03 -3.5343771344182484e-02 0.0000000000000000e+00  -1.2273705110236687e-03 -1.1877472370753841e-04 0.0000000000000000e+00  4.8919170023979264e-03 1.3387864409014011e-03 0.0000000000000000e+00  8.2453638419756597e-03 -2.5337690446623708e-04 0.0000000000000000e+00  1.9536899601276227e-02 -5.2508386075985420e+00 0.0000000000000000e+00  -2.4284194866248080e-03 -5.4916068254571044e+00 0.0000000000000000e+00  1.2587070806592323e-02 -5.2482422596756599e+00 0.0000000000000000e+00  0.0000000000000000e+00 0.0000000000000000e+00 0.0000000000000000e+00  0.0000000000000000e+00 0.0000000000000000e+00 0.0000000000000000e+00  1.3293049601864296e-02 -5.2316348183191179e+00 0.0000000000000000e+00  -8.3513180003023189e-03 -5.4720645535924008e+00 0.0000000000000000e+00  6.8559967281287392e-03 -5.2305370181248154e+00 0.0000000000000000e+00  1.9913225686136415e-02 -1.1368327496570019e-02 0.0000000000000000e+00  1.5026653485345647e-02 -1.2484526466748129e-02 0.0000000000000000e+00  1.0313612863010016e-02 -1.2972207245507704e-02 0.0000000000000000e+00  -3.5425517929910774e-03 -4.2450389860806188e-02 0.0000000000000000e+00  -8.9397146631205952e-04 -4.5039223814312523e-02 0.0000000000000000e+00  2.9992795935357137e-03 -4.5503453688320650e-02 0.0000000000000000e+00  6.9558686632679558e-03 -4.5045944674082822e-02 0.0000000000000000e+00  7.7596396739679210e-03 -4.2990473270849587e-02 0.0000000000000000e+00  -1.8725846843572612e-02 9.9026886699896850e-03 0.0000000000000000e+00  -1.4389775148059575e-02 9.8376252432562303e-03 0.0000000000000000e+00  -9.9366169132647179e-03 1.1741588179836525e-02 0.0000000000000000e+00  1.5802899897490501e-02 -5.2478501145661598e+00 0.0000000000000000e+00  -2.9735280725594823e-03 -5.4884503184689688e+00 0.0000000000000000e+00  1.2491852050283794e-02 -5.2447558275816748e+00 0.0000000000000000e+00  0.0000000000000000e+00 0.0000000000000000e+00 0.0000000000000000e+00  0.0000000000000000e+00 0.0000000000000000e+00 0.0000000000000000e+00  1.3335475071127496e-02 -5.2251340886268531e+00 0.0000000000000000e+00  -8.7107626435564446e-03 -5.4656986605398430e+00 0.0000000000000000e+00  6.6205676313232393e-03 -5.2240636983971438e+00 0.0000000000000000e+00  2.8569671434982621e-02 -1.7904865830206323e-02 0.0000000000000000e+00  2.5841466573658340e-02 -1.7842773462336418e-02 0.0000000000000000e+00  2.4141946749289187e-02 -1.8701433614449946e-02 0.0000000000000000e+00  -3.0622063270468653e-03 -5.2954406640261298e-02 0.0000000000000000e+00  -1.6671355109512123e-03 -5.3963701974922611e-02 0.0000000000000000e+00  2.5107260637621366e-03 -5.4443394279201432e-02 0.0000000000000000e+00  6.6088592315572169e-03 -5.3913349113148386e-02 0.0000000000000000e+00  6.8945127658271588e-03 -5.2066646457793263e-02 0.0000000000000000e+00  -2.6745266654737886e-02 1.6255912094077299e-02 0.0000000000000000e+00  -2.3992552659972539e-02 1.6109616694470502e-02 0.0000000000000000e+00  -2.2186084541230295e-02 1.6697567201194162e-02 0.0000000000000000e+00  1.5418916991171483e-02 -5.2420109276364704e+00 0.0000000000000000e+00  -1.8570145477349090e-03 -5.4832260080633723e+00 0.0000000000000000e+00  1.3022392126873320e-02 -5.2393067419788775e+00 0.0000000000000000e+00  0.0000000000000000e+00 0.0000000000000000e+00 0.0000000000000000e+00  0.0000000000000000e+00 0.0000000000000000e+00 0.0000000000000000e+00  1.3155596559777322e-02 -5.2176115964844998e+00 0.0000000000000000e+00  -9.3349014142477971e-03 -5.4582924785330817e+00 0.0000000000000000e+00  5.9057560399097429e-03 -5.2161875505427178e+00 0.0000000000000000e+00  3.1155683828607995e-02 -2.0445925428315179e-02 0.0000000000000000e+00  3.0231982925843014e-02 -2.0409281005983687e-02 0.0000000000000000e+00  3.0056955200752713e-02 -2.1099146424972400e-02 0.0000000000000000e+00  -3.3886935926831013e-03 -6.3329870018335815e-02 0.0000000000000000e+00  -2.4214418070407999e-03 -6.3750752191038054e-02 0.0000000000000000e+00  1.8671573512681514e-03 -6.4235038695368687e-02 0.0000000000000000e+00  6.1751859483146765e-03 -6.3587719274160417e-02 0.0000000000000000e+00  6.6226431016828263e-03 -6.2102157211551962e-02 0.0000000000000000e+00  -2.8600550330365394e-02 1.8729412885127885e-02 0.0000000000000000e+00  -2.7719905997963704e-02 1.8380239634064335e-02 0.0000000000000000e+00  -2.7679772958273636e-02 1.8675575025623482e-02 0.0000000000000000e+00  1.6068892787607220e-02 -5.2333156334834108e+00 0.0000000000000000e+00  -6.0004832677154683e-04 -5.4753297517899711e+00 0.0000000000000000e+00  1.3706741034789952e-02 -5.2314506949712776e+00 0.0000000000000000e+00  2.6828462556416458e-10 2.9687324415948491e-11 0.0000000000000000e+00  0.0000000000000000e+00 0.0000000000000000e+00 0.0000000000000000e+00  1.2917962007402693e-02 -5.2093833882522356e+00 0.0000000000000000e+00  -9.7687293080325199e-03 -5.4501826094803096e+00 0.0000000000000000e+00  5.4716038496590361e-03 -5.2074117831679736e+00 0.0000000000000000e+00  2.9166805886325458e-02 -1.9931945867991258e-02 0.0000000000000000e+00  2.9709494328190620e-02 -2.0047610396932494e-02 0.0000000000000000e+00  3.0982206293692922e-02 -2.0709552350986975e-02 0.0000000000000000e+00  -3.5386775752348359e-03 -7.3885585779553578e-02 0.0000000000000000e+00  -2.8413372096147836e-03 -7.3655229843151648e-02 0.0000000000000000e+00  1.2916520989239341e-03 -7.4149905693768753e-02 0.0000000000000000e+00  5.5027871347106414e-03 -7.3397848003715779e-02 0.0000000000000000e+00  6.2127131933747259e-03 -7.2469269362569227e-02 0.0000000000000000e+00  -2.6013190256843139e-02 1.8035388920111698e-02 0.0000000000000000e+00  -2.6612650458352139e-02 1.7883984211042616e-02 0.0000000000000000e+00  -2.7939558425324057e-02 1.8299095506103702e-02 0.0000000000000000e+00  1.7400633999660346e-02 -5.2226458503800410e+00 0.0000000000000000e+00  5.3751105818861870e-04 -5.4653786184072555e+00 0.0000000000000000e+00  1.4384311700037783e-02 -5.2216841572309498e+00 0.0000000000000000e+00  0.0000000000000000e+00 0.0000000000000000e+00 0.0000000000000000e+00  0.0000000000000000e+00 0.0000000000000000e+00 0.0000000000000000e+00  1.2743759183901703e-02 -5.2011549601612401e+00 0.0000000000000000e+00  -9.7400600481223291e-03 -5.4420931581365011e+00 0.0000000000000000e+00  5.7243827722992359e-03 -5.1986057506567871e+00 0.0000000000000000e+00  2.3916954828111448e-02 -1.6986294895571769e-02 0.0000000000000000e+00  2.5659718107291667e-02 -1.7363769000622798e-02 0.0000000000000000e+00  2.7995782445570955e-02 -1.8157900082837946e-02 0.0000000000000000e+00  -3.1917860420856733e-03 -8.3497877255629474e-02 0.0000000000000000e+00  -2.7236940816888519e-03 -8.2773453202973982e-02 0.0000000000000000e+00  8.3559890693755392e-04 -8.3289519898238767e-02 0.0000000000000000e+00  4.5364199115345699e-03 -8.2484949669773364e-02 0.0000000000000000e+00  5.4247983844353809e-03 -8.2163644467178748e-02 0.0000000000000000e+00  -2.0271451679595719e-02 1.4941442274797170e-02 0.0000000000000000e+00  -2.2061131438763568e-02 1.5110393932467374e-02 0.0000000000000000e+00  -2.4455588098073969e-02 1.5692249011258232e-02 0.0000000000000000e+00  1.8702599953626314e-02 -5.2110121300454493e+00 0.0000000000000000e+00  1.2661513842949714e-03 -5.4543605779466580e+00 0.0000000000000000e+00  1.4936623775323631e-02 -5.2109414054010212e+00 0.0000000000000000e+00  0.0000000000000000e+00 0.0000000000000000e+00 0.0000000000000000e+00  0.0000000000000000e+00 0.0000000000000000e+00 0.0000000000000000e+00  1.2701821426268441e-02 -5.1938036511437753e+00 0.0000000000000000e+00  -9.1390129303574458e-03 -5.4349088428812120e+00 0.0000000000000000e+00  6.8175072172955813e-03 -5.1907669507561884e+00 0.0000000000000000e+00  1.6497428312635863e-02 -1.2290041665089237e-02 0.0000000000000000e+00  1.9138783741710349e-02 -1.2939624763747963e-02 0.0000000000000000e+00  2.2195358222683391e-02 -1.3866434363913351e-02 0.0000000000000000e+00  -2.2950954744998201e-03 -9.1148421206231761e-02 0.0000000000000000e+00  -2.0887302387289199e-03 -9.0128799082077285e-02 0.0000000000000000e+00  5.0963030187332436e-04 -9.0696530276972165e-02 0.0000000000000000e+00  3.2931136440519128e-03 -8.9887277798274962e-02 0.0000000000000000e+00  4.1890437975275275e-03 -9.0125834529867971e-02 0.0000000000000000e+00  -1.2480298204690751e-02 1.0122799506568171e-02 0.0000000000000000e+00  -1.5160539028598749e-02 1.0626109751774734e-02 0.0000000000000000e+00  -1.8269000921276216e-02 1.1406190748456934e-02 0.0000000000000000e+00  1.9581863066971981e-02 -5.1996548661022199e+00 0.0000000000000000e+00  1.4112758153042545e-03 -5.4434242220220579e+00 0.0000000000000000e+00  1.5281536886510686e-02 -5.2003391836785449e+00 0.0000000000000000e+00  0.0000000000000000e+00 0.0000000000000000e+00 0.0000000000000000e+00  0.0000000000000000e+00 0.0000000000000000e+00 0.0000000000000000e+00  1.2818140669825477e-02 -5.1881932572232197e+00 0.0000000000000000e+00  -7.9826268079954722e-03 -5.4294886158436180e+00 0.0000000000000000e+00  8.7046367928485073e-03 -5.1848403015384132e+00 0.0000000000000000e+00  7.8107408820797157e-03 -6.4910778180375297e-03 0.0000000000000000e+00  1.1042724181539015e-02 -7.3456296858912277e-03 0.0000000000000000e+00  1.4482352363344024e-02 -8.3396607198847443e-03 0.0000000000000000e+00  -9.2880127383803530e-04 -9.6017930463657919e-02 0.0000000000000000e+00  -1.0274098817625737e-03 -9.4913521365245446e-02 0.0000000000000000e+00  3.1287307254788716e-04 -9.5550791518891606e-02 0.0000000000000000e+00  1.8592696527299740e-03 -9.4776135810958104e-02 0.0000000000000000e+00  2.5875633690684305e-03 -9.5455763766951585e-02 0.0000000000000000e+00  -3.5596788356141349e-03 4.2323127184210295e-03 0.0000000000000000e+00  -6.8203564918783068e-03 5.0114463659793876e-03 0.0000000000000000e+