<?xml version="1.0"?>
<VTKFile type="UnstructuredGrid"  version="0.1"  >
<UnstructuredGrid>
<Piece  NumberOfPoints="589" NumberOfCells="1080">
<Points>
<DataArray  type="Float64"  NumberOfComponents="3"  format="ascii">-9 0 0  -8 0 0  -7 0 0  -6 0 0  -5 0 0  -4 0 0  -3 0 0  -2 0 0  -1 0 0  0 0 0  1 0 0  2 0 0  3 0 0  4 0 0  5 0 0  6 0 0  7 0 0  8 0 0  9 0 0  -9 2 0  -8.000008196313116 1.999987822135203 0  -7.000017208279647 1.999977123896385 0  -6.000028926006642 1.999969104113487 0  -5.00004764693782 1.999964280212947 0  -4.000028466987612 1.999973365603331 0  -3.00000868015696 1.999981869310379 0  -1.999998938965803 1.999989800261154 0  -0.9999971246034135 1.999996063684056 0  -2.574939091093181e-07 1.999998808107931 0  0.9999962571836652 1.999996907644141 0  1.999996880837808 1.999990817744871 0  3.000004619455776 1.99998333665765 0  4.000020420724393 1.999975304614611 0  5.000043262116809 1.999971958989651 0  6.000026135162051 1.999973221851503 0  7.000015543491275 1.999979382034773 0  8.000007418893608 1.999988849257029 0  9 2 0  -9 4 0  -8.000013129811279 3.999969726609201 0  -7.000023593550407 3.999943534598482 0  -6.000029839085916 3.999925425038562 0  -5.000032202039268 3.999919220581185 0  -4.000004392112596 3.999923388519133 0  -2.999985627908376 3.99994716066244 0  -1.999980500217047 3.999978109521371 0  -0.9999872071020993 4.000002991505061 0  -3.653704606194533e-07 4.000013021071698 0  0.9999861912494268 4.000005188382287 0  1.999978527380049 3.999984019441582 0  2.99998270942052 3.99995535046774 0  4.000000571818743 3.999926509707234 0  5.000027645711175 3.999916796334681 0  6.000026128961524 3.999926854980429 0  7.00002121844593 3.999945536828047 0  8.000012014603939 3.999970965378867 0  9 4 0  -9 6 0  -8.000028726560044 5.999935309660105 0  -7.000046851572101 5.999877619279738 0  -6.00004628253522 5.999834129179742 0  -5.000024692279545 5.999811752846113 0  -3.999970639681537 5.999846907147129 0  -2.999945906008323 5.999920389487006 0  -1.999955260142501 5.999997418709611 0  -0.9999790441607209 6.000040265254176 0  -3.127859360499585e-06 6.000048886031566 0  0.9999752543332598 6.000034982945174 0  1.999958870988655 5.999996544148407 0  2.99995292977879 5.999931621837045 0  3.999965952262777 5.999864295867866 0  5.000012152338689 5.999830947528769 0  6.000039697804437 5.999845998806407 0  7.000044065604571 5.999884708852795 0  8.000027851724594 5.999938661075572 0  9 6 0  -9 8 0  -8.000086717803914 7.999872911688676 0  -7.000144878687615 7.999754923075882 0  -6.00014680677265 7.999658398223552 0  -5.000068773527899 7.999603728971516 0  -3.99996454415274 7.99976601326102 0  -2.999983386298772 7.999956687361419 0  -2.000022120864434 8.000049672062596 0  -1.000025162094139 8.000060378995876 0  -1.668199764790655e-06 8.000063508588084 0  1.000015973341953 8.000072827112529 0  2.000009031628592 8.000033940398792 0  2.999964037013851 7.999967671251067 0  3.999949091871689 7.999803753139563 0  5.000051712383159 7.99961880957895 0  6.00014596295762 7.999670535440578 0  7.000149222936837 7.999762933535717 0  8.000090225987295 7.999876826150846 0  9 8 0  -9 10 0  -8.000258842164589 9.999774191194213 0  -7.000467735146583 9.999546489843185 0  -6.000567079486435 9.999315439531021 0  -5.000473812646183 9.99908062606864 0  -4.000308891903992 9.999603934944291 0  -3.000335252687262 10.00005392497069 0  -2.000267717034148 9.999976772020718 0  -1.000122438011085 9.999952008791562 0  -1.526138436672499e-05 9.999945963202856 0  1.000091090059132 9.999946396300842 0  2.00023255998787 9.999943457186989 0  3.000357378834634 10.0001052200628 0  4.00034221100325 9.999677446415555 0  5.00052988637218 9.999113093255259 0  6.000615987294306 9.999332540089052 0  7.00050327972406 9.999555267950196 0  8.000277432362362 9.999777922029413 0  9 10 0  -9 12 0  -8.000630325980735 11.99968320331998 0  -7.001228072383507 11.99935172634996 0  -6.0017564174925 11.99898801020464 0  -5.002169662532625 11.99856757083559 0  -4.00208575911914 11.99952057677612 0  -3.002161589139425 12.00046401331029 0  -2.001481469382166 12.00035000421339 0  -1.000726121598621 12.00028844151107 0  5.756132322665548e-05 12.00027666810372 0  1.000848801181154 12.00031666184742 0  2.00163006995066 12.00041997903638 0  3.002366362360031 12.00061553861318 0  4.002285205044984 11.99958992003867 0  5.002339086328419 11.99855578283388 0  6.001880246413968 11.99898178173646 0  7.001309395209778 11.99934811947096 0  8.000670672144118 11.99968145999217 0  9 12 0  -9 14 0  -8.001131226984404 13.99965111988324 0  -7.002264572512374 13.99928623673386 0  -6.003403688866274 13.99888793691072 0  -5.004556121358084 13.99843604046561 0  -4.004568469258132 13.99954834192676 0  -3.004574938790852 14.00067473386138 0  -2.00299783578792 14.00051379029119 0  -1.001443887584021 14.00042601670673 0  0.0001003776882810556 14.00040057914529 0  1.001647732314749 14.00043397593272 0  2.003210014057114 14.00052802173604 0  3.004796590674515 14.00068782756682 0  4.004809017668443 13.99954909815876 0  5.004815856064865 13.99841742417541 0  6.00359035551664 13.99887038666403 0  7.002385711924692 13.99927338950001 0  8.001190905927261 13.99964443544668 0  9 14 0  -9 16 0  -8.001622426127474 15.999683170164 0  -7.003275967171431 15.9993546714015 0  -6.004994440512664 15.99900263754173 0  -5.006817155555626 15.99861499338319 0  -4.006882415117552 15.99956197585274 0  -3.006820832488917 16.00050389801445 0  -2.004424769125595 16.00038588619216 0  -1.002124313083429 16.00031504541413 0  0.0001309000392418913 16.00028987363923 0  1.002388453436036 16.00030940373284 0  2.004695931710057 16.0003737336822 0  3.007103962859559 16.00048378446796 0  4.007172902031628 15.99951903118285 0  5.007112558999014 15.99855353700859 0  6.005213329025865 15.99895931847001 0  7.003420430295979 15.99932682905202 0  8.001694197193022 15.99966951663326 0  9 16 0  -9 18 0  -8.001987869886825 17.99976192720894 0  -7.004025317664323 17.99951737401186 0  -6.006164500544811 17.99925998471288 0  -5.008462697663949 17.99898367615758 0  -4.008560861131146 17.99956480197376 0  -3.008466248207944 18.00014516059981 0  -2.005473347498821 18.00007011104642 0  -1.002625670805625 18.00002223952677 0  0.0001519979719867505 18.00000119299456 0  1.002931224347842 18.00000644621786 0  2.005783471388472 18.00003734170436 0  3.008783604279913 18.00009294743868 0  4.0088837214929 17.99949668088705 0  5.00878836051879 17.99890216010788 0  6.00640674709796 17.99920164585328 0  7.004185827844807 17.99947975277382 0  8.002067824870657 17.99974348468972 0  9 18 0  -9 20 0  -8.002153806100381 19.99986658522735 0  -7.004365359881199 19.99973145134648 0  -6.006694608146124 19.99959307792086 0  -5.009205892724024 19.99945033267416 0  -4.009317668658574 19.99956457243334 0  -3.009207275955418 19.99967794428653 0  -2.005945625852775 19.99964621725316 0  -1.00284917644272 19.99962274770208 0  0.0001667841985919789 19.99960792626277 0  1.003183906065453 19.99960151237937 0  2.006283804954086 19.99960265669226 0  3.009551102127459 19.99960984730794 0  4.009663764697041 19.99948562580889 0  5.009552598922935 19.99936257268253 0  6.006953042904168 19.99952957501315 0  7.004536883527154 19.99969021808435 0  8.002239337060596 19.99984629889202 0  8.999999999991489 19.9999999999934 0  -9 22 0  -8.002087646519646 21.99997809640823 0  -7.004232271131164 21.99995848097931 0  -6.006492631107678 21.99994366202753 0  -5.00893102443727 21.99993659248642 0  -4.009040322317299 21.9995599497669 0  -3.008931968029621 21.99918231765255 0  -2.00576175670313 21.99918948810933 0  -1.002752917673825 21.99918887746578 0  0.000176926576451721 21.99918124380682 0  1.003107670037179 21.99916654359864 0  2.006119191589914 21.99914394707135 0  3.009293826316311 21.99911182379198 0  4.009402062530126 21.9994821137004 0  5.00929124264804 21.99985302575825 0  6.006761581099486 21.99988292416628 0  7.004410980798878 21.99991890646066 0  8.002176818760457 21.99995858443006 0  9 22 0  -9 24 0  -8.001792438443438 24.0000804555796 0  -7.003633836263201 24.00016632331997 0  -6.005574520450653 24.00026323896196 0  -5.007667465689799 24.00037730210927 0  -4.00776165526858 23.9995511216924 0  -3.007669268953136 23.99872402844505 0  -2.00493691674092 23.99876369944366 0  -1.002342762947063 23.99878292619226 0  0.0001835841697704101 23.99878265300335 0  1.002710640537065 23.99876297267818 0  2.005306915851193 23.9987231304005 0  3.008042785322165 23.99866151832834 0  4.008133134604167 23.99948407324298 0  5.008035869737845 24.00030693830125 0  6.005849879920392 24.00021190636985 0  7.003816947717556 24.00013278769891 0  8.001883848166232 24.00006389414747 0  9 24 0  -9 26 0  -8.001300105677215 26.00016118933267 0  -7.002635698315121 26.00032998639027 0  -6.00404323545395 26.00051422413497 0  -5.005560914002301 26.00072220286785 0  -4.00563039859062 25.99953862510256 0  -3.005564423030574 25.99835432351358 0  -2.003563635866003 25.99841927673037 0  -1.001663354131385 25.99845456477778 0  0.0001875918660739904 25.99846127583192 0  1.002039100840421 25.99843962347961 0  2.003941066830751 25.99838894756773 0  3.005944645172542 25.99830771227298 0  4.00600720355204 25.99948962094241 0  5.005933520780062 26.0006716177771 0  6.004321986810952 26.00047723116287 0  7.002821183527324 26.00030577488218 0  8.001392734874367 26.00014921848623 0  9 26 0  -9 28 0  -8.000664321775858 28.00021151893564 0  -7.001347040790041 28.00043190291334 0  -6.002067109244262 28.00067024448358 0  -5.002844306665012 28.00093609879741 0  -4.002882522487861 27.99952360591594 0  -3.002849771399393 27.99811071478923 0  -2.001792597951157 27.99819308394503 0  -1.000788533884193 27.99824007453737 0  0.0001895374322965488 27.99825290717529 0  1.001168063464284 27.99823191239322 0  2.002173483485811 27.99817653082713 0  3.003232890209995 27.99808531223647 0  4.003261384727324 27.99949747756393 0  5.003218306037353 28.00090964909974 0  6.00234709491519 28.00065086054918 0  7.001533442198193 28.00041919551754 0  8.00075743970908
[...]
<PointData  Vectors="f_44-0"> 
<DataArray  type="Float64"  Name="f_44-0"  NumberOfComponents="3" format="ascii">0.0000000000000000e+00 0.0000000000000000e+00 0.0000000000000000e+00  2.5524998995784463e-07 -6.6467145799091201e+00 0.0000000000000000e+00  2.8694393940352670e-07 -6.6250159343070374e+00 0.0000000000000000e+00  5.4907501720262782e-07 -6.1442543865358363e+00 0.0000000000000000e+00  0.0000000000000000e+00 0.0000000000000000e+00 0.0000000000000000e+00  0.0000000000000000e+00 0.0000000000000000e+00 0.0000000000000000e+00  0.0000000000000000e+00 0.0000000000000000e+00 0.0000000000000000e+00  0.0000000000000000e+00 0.0000000000000000e+00 0.0000000000000000e+00  0.0000000000000000e+00 0.0000000000000000e+00 0.0000000000000000e+00  0.0000000000000000e+00 0.0000000000000000e+00 0.0000000000000000e+00  0.0000000000000000e+00 0.0000000000000000e+00 0.0000000000000000e+00  0.0000000000000000e+00 0.0000000000000000e+00 0.0000000000000000e+00  0.0000000000000000e+00 0.0000000000000000e+00 0.0000000000000000e+00  0.0000000000000000e+00 0.0000000000000000e+00 0.0000000000000000e+00  0.0000000000000000e+00 0.0000000000000000e+00 0.0000000000000000e+00  2.6172826602421960e-07 -6.6634062795178099e+00 0.0000000000000000e+00  2.9062140403680655e-07 -6.6409068637037203e+00 0.0000000000000000e+00  5.5322366516847775e-07 -6.1579772977609384e+00 0.0000000000000000e+00  0.0000000000000000e+00 0.0000000000000000e+00 0.0000000000000000e+00  0.0000000000000000e+00 0.0000000000000000e+00 0.0000000000000000e+00  -2.1204911432984950e-02 -6.3250393663812545e+00 0.0000000000000000e+00  2.1143038667294010e-03 -6.6284455905706041e+00 0.0000000000000000e+00  3.4939338817025468e-02 -6.3354222795234048e+00 0.0000000000000000e+00  1.9228787845160292e-03 -4.2691351745633934e-04 0.0000000000000000e+00  2.0352881368435405e-03 -1.0634606131298449e-03 0.0000000000000000e+00  1.1143638983101554e-03 -6.1610278504082498e-04 0.0000000000000000e+00  8.2584349339411391e-04 1.4078953641662504e-04 0.0000000000000000e+00  4.7541868001651973e-04 5.4746924780355543e-04 0.0000000000000000e+00  1.9248540552173414e-04 4.3883467220684193e-04 0.0000000000000000e+00  -9.8300322263161365e-05 -7.1269642536566415e-06 0.0000000000000000e+00  -3.2905875850344448e-04 -5.7999468953118369e-04 0.0000000000000000e+00  -6.7416253335062534e-04 -1.4535087206381306e-03 0.0000000000000000e+00  -1.1818398305367362e-03 -1.6481681641049083e-03 0.0000000000000000e+00  -2.0343575332364403e-03 -2.8752797675628554e-03 0.0000000000000000e+00  -2.1951198538256285e-02 -6.3404142050354046e+00 0.0000000000000000e+00  2.2476975075989237e-03 -6.6443394831585811e+00 0.0000000000000000e+00  3.4771411514736832e-02 -6.3512227656421825e+00 0.0000000000000000e+00  0.0000000000000000e+00 0.0000000000000000e+00 0.0000000000000000e+00  0.0000000000000000e+00 0.0000000000000000e+00 0.0000000000000000e+00  1.4039215213290933e-02 -6.3323689454619618e+00 0.0000000000000000e+00  -8.4071338472619227e-03 -6.6061624847990412e+00 0.0000000000000000e+00  1.4615054701586092e-02 -6.3366237652646102e+00 0.0000000000000000e+00  -1.4681077777391669e-03 -2.0999451577381491e-03 0.0000000000000000e+00  -6.6666057420877733e-05 2.4447053974724088e-04 0.0000000000000000e+00  2.1946493798964551e-04 2.0731178617466746e-03 0.0000000000000000e+00  9.2877464521663849e-05 2.1114450397704205e-03 0.0000000000000000e+00  -4.0798091707532519e-04 9.2528781447313716e-04 0.0000000000000000e+00  -5.7307057149963013e-04 -1.3756734752968093e-04 0.0000000000000000e+00  -4.0702375293617061e-04 -2.8487526605818235e-04 0.0000000000000000e+00  4.2434889106180172e-04 -9.1972103719843766e-04 0.0000000000000000e+00  5.5843845468463084e-04 -1.6140235073516247e-03 0.0000000000000000e+00  1.5270972618678833e-04 -7.2755588286851805e-04 0.0000000000000000e+00  -3.7593768910858038e-04 3.2118754410995247e-04 0.0000000000000000e+00  1.3819925362127308e-02 -6.3474207812346997e+00 0.0000000000000000e+00  -8.7961877679269239e-03 -6.6210840954536350e+00 0.0000000000000000e+00  1.3486231613299159e-02 -6.3515325897432575e+00 0.0000000000000000e+00  0.0000000000000000e+00 0.0000000000000000e+00 0.0000000000000000e+00  0.0000000000000000e+00 0.0000000000000000e+00 0.0000000000000000e+00  1.5448097414504805e-02 -6.3361260831215747e+00 0.0000000000000000e+00  -4.3945276866509250e-03 -6.6054494037573406e+00 0.0000000000000000e+00  1.4557358438228902e-02 -6.3321988688134656e+00 0.0000000000000000e+00  -3.4159146123283078e-03 2.5936704634269576e-03 0.0000000000000000e+00  -1.8116741304399823e-03 5.6341715966895470e-03 0.0000000000000000e+00  -1.7544579237015420e-03 4.5479798986737463e-03 0.0000000000000000e+00  -2.8497085872167317e-03 -8.1935565891779838e-04 0.0000000000000000e+00  -1.7469740412383045e-03 -3.2575656959917421e-03 0.0000000000000000e+00  -1.9236637840721691e-04 -1.6910497984591200e-03 0.0000000000000000e+00  1.0142869564346605e-03 -7.7535865546096000e-04 0.0000000000000000e+00  8.0029562237049457e-04 -4.7312776909904319e-04 0.0000000000000000e+00  1.4352513665567984e-03 1.3083500473903156e-04 0.0000000000000000e+00  2.2699000785463613e-03 -2.4336534796123208e-03 0.0000000000000000e+00  4.6677463616399191e-04 -5.2247378554384216e-03 0.0000000000000000e+00  1.7524950791674106e-02 -6.3496463768032330e+00 0.0000000000000000e+00  -4.3671023809225031e-03 -6.6190662382471892e+00 0.0000000000000000e+00  1.2714730177598379e-02 -6.3472118433636604e+00 0.0000000000000000e+00  0.0000000000000000e+00 0.0000000000000000e+00 0.0000000000000000e+00  0.0000000000000000e+00 0.0000000000000000e+00 0.0000000000000000e+00  1.4981404154994835e-02 -6.3376723174565859e+00 0.0000000000000000e+00  -4.1946657125440405e-03 -6.6098268728738443e+00 0.0000000000000000e+00  1.4414397078641466e-02 -6.3435422798391814e+00 0.0000000000000000e+00  -1.3325056278153983e-02 -1.8155499039304906e-03 0.0000000000000000e+00  -1.5681373626660961e-02 3.5500127912983658e-03 0.0000000000000000e+00  -5.3406713491791612e-03 -5.6087950198783322e-03 0.0000000000000000e+00  -4.9277794230013650e-03 -1.1367547850312057e-02 0.0000000000000000e+00  6.5512348029996470e-04 -6.1596987438613726e-03 0.0000000000000000e+00  2.3438278327110027e-03 -5.2754691385414124e-03 0.0000000000000000e+00  5.5236147629566246e-03 -1.0624372444784567e-02 0.0000000000000000e+00  5.2056135126000869e-03 -1.7988422918090736e-03 0.0000000000000000e+00  1.9680020409204111e-02 -6.6050394664625691e-03 0.0000000000000000e+00  2.1237348620649073e-02 -1.6596405435378082e-02 0.0000000000000000e+00  1.3092397502874003e-02 -1.4983942887063353e-02 0.0000000000000000e+00  1.8068488087955931e-02 -6.3482215847706254e+00 0.0000000000000000e+00  -1.8350266355576547e-03 -6.6166262137794698e+00 0.0000000000000000e+00  1.3954408302142908e-02 -6.3442241030407125e+00 0.0000000000000000e+00  0.0000000000000000e+00 0.0000000000000000e+00 0.0000000000000000e+00  0.0000000000000000e+00 0.0000000000000000e+00 0.0000000000000000e+00  1.3542613334858695e-02 -6.3334633980736159e+00 0.0000000000000000e+00  -9.7952454250233301e-03 -6.6028740243059083e+00 0.0000000000000000e+00  5.2717564078414152e-04 -6.3288167978036176e+00 0.0000000000000000e+00  -5.8750839621989848e-02 2.3376822464335225e-02 0.0000000000000000e+00  -4.5527897167145767e-02 1.5632738076471444e-02 0.0000000000000000e+00  -2.4389086701181804e-02 9.1170164820663889e-03 0.0000000000000000e+00  2.1378663301705671e-03 -2.0573612940482856e-02 0.0000000000000000e+00  2.1740440295723454e-03 -8.0226381577580379e-03 0.0000000000000000e+00  5.3941464367672541e-03 -5.7081164846197220e-03 0.0000000000000000e+00  8.2499300834824856e-03 -6.1241595101970700e-03 0.0000000000000000e+00  7.3272387689155647e-03 -6.8274518608256902e-03 0.0000000000000000e+00  3.9407661663268485e-02 -1.1474858450838215e-02 0.0000000000000000e+00  4.8309997726114294e-02 -2.0697867896399651e-02 0.0000000000000000e+00  5.0106142378732135e-02 -2.4076816925825809e-02 0.0000000000000000e+00  2.7407397169955099e-02 -6.3425328216870449e+00 0.0000000000000000e+00  -2.3226918289940819e-04 -6.6119223182808495e+00 0.0000000000000000e+00  1.4276387543962802e-02 -6.3403164624894943e+00 0.0000000000000000e+00  0.0000000000000000e+00 0.0000000000000000e+00 0.0000000000000000e+00  0.0000000000000000e+00 0.0000000000000000e+00 0.0000000000000000e+00  1.3974978413762702e-02 -6.3286219617002040e+00 0.0000000000000000e+00  -8.4952983357941911e-03 -6.5973526036723404e+00 0.0000000000000000e+00  5.5837134296598586e-03 -6.3260696826797158e+00 0.0000000000000000e+00  -2.8369240839627882e-02 1.5399641257740309e-02 0.0000000000000000e+00  -3.8948722350309092e-02 1.7994251362431261e-02 0.0000000000000000e+00  -5.3994304864362096e-02 3.3758568849316349e-02 0.0000000000000000e+00  -2.1576446369050355e-02 -2.8510252039756948e-02 0.0000000000000000e+00  -7.5396488682587274e-03 -2.8052005468833238e-02 0.0000000000000000e+00  2.6872125600884071e-03 -2.5498633375125927e-02 0.0000000000000000e+00  9.7146230922039063e-03 -2.5871759876174006e-02 0.0000000000000000e+00  8.6398933946144393e-03 -2.9750909067771860e-02 0.0000000000000000e+00  1.9155971437419029e-02 -1.7378367952793870e-02 0.0000000000000000e+00  3.3593120586470210e-02 -1.3325757890248676e-02 0.0000000000000000e+00  4.5430105810354830e-02 -1.6526919188962262e-03 0.0000000000000000e+00  2.9009597093195966e-02 -6.3403962548117976e+00 0.0000000000000000e+00  -2.5196057613265837e-03 -6.6092112329808534e+00 0.0000000000000000e+00  1.3257312774463199e-02 -6.3374990498023722e+00 0.0000000000000000e+00  0.0000000000000000e+00 0.0000000000000000e+00 0.0000000000000000e+00  0.0000000000000000e+00 0.0000000000000000e+00 0.0000000000000000e+00  1.4818604311518876e-02 -6.3247538530920977e+00 0.0000000000000000e+00  -6.9090311112832746e-03 -6.5931791982019998e+00 0.0000000000000000e+00  8.2760684178780734e-03 -6.3219296009370760e+00 0.0000000000000000e+00  6.1240829937186337e-03 1.4143796301355289e-03 0.0000000000000000e+00  -4.6267895026071447e-04 -8.7603066762382913e-04 0.0000000000000000e+00  -4.0430914711874853e-03 -1.1619751299222379e-02 0.0000000000000000e+00  -5.2803671318272431e-04 -3.9101814308697802e-02 0.0000000000000000e+00  7.4225270676573794e-04 -3.8237752637550040e-02 0.0000000000000000e+00  3.0921894565979755e-03 -3.6784999802415709e-02 0.0000000000000000e+00  6.0995963267330136e-03 -3.6285166505919564e-02 0.0000000000000000e+00  7.9180426735842302e-03 -3.4979020913011298e-02 0.0000000000000000e+00  -4.1430447282491054e-03 -4.2829102372245409e-04 0.0000000000000000e+00  2.2639233324750186e-03 1.7500580967534677e-03 0.0000000000000000e+00  5.7867649582395743e-03 7.1950351805146135e-04 0.0000000000000000e+00  1.8717083545708224e-02 -6.3388877292676273e+00 0.0000000000000000e+00  -3.6116011543808396e-03 -6.6085623619201135e+00 0.0000000000000000e+00  1.2448488707143747e-02 -6.3364963797805904e+00 0.0000000000000000e+00  0.0000000000000000e+00 0.0000000000000000e+00 0.0000000000000000e+00  0.0000000000000000e+00 0.0000000000000000e+00 0.0000000000000000e+00  1.5413106013527996e-02 -6.3215591694699835e+00 0.0000000000000000e+00  -6.0715594904497006e-03 -6.5898019704718935e+00 0.0000000000000000e+00  1.0387348978812843e-02 -6.3193513678187818e+00 0.0000000000000000e+00  2.5080883447866974e-02 -1.1028738205245319e-02 0.0000000000000000e+00  2.0003964913861520e-02 -1.2724496183736235e-02 0.0000000000000000e+00  1.5024064380058729e-02 -1.3759894713291088e-02 0.0000000000000000e+00  -2.9519608693568040e-04 -3.9180315003525860e-02 0.0000000000000000e+00  7.0969451076642045e-04 -4.2597964599647029e-02 0.0000000000000000e+00  3.2331815624459365e-03 -4.3047805099368577e-02 0.0000000000000000e+00  5.9043789444465705e-03 -4.2537196638268104e-02 0.0000000000000000e+00  5.0328660349746477e-03 -3.9839763485079921e-02 0.0000000000000000e+00  -2.3800442100433829e-02 1.0260288047579825e-02 0.0000000000000000e+00  -1.9291958179888654e-02 1.0704839576592363e-02 0.0000000000000000e+00  -1.4571313372936892e-02 1.3215533514946504e-02 0.0000000000000000e+00  1.3008171536511758e-02 -6.3390754208895030e+00 0.0000000000000000e+00  -5.0505833941955165e-03 -6.6079405036038636e+00 0.0000000000000000e+00  1.2145517251701970e-02 -6.3358675979404726e+00 0.0000000000000000e+00  0.0000000000000000e+00 0.0000000000000000e+00 0.0000000000000000e+00  0.0000000000000000e+00 0.0000000000000000e+00 0.0000000000000000e+00  1.5556874334272788e-02 -6.3181219742959591e+00 0.0000000000000000e+00  -6.1917038331302660e-03 -6.5861361007079413e+00 0.0000000000000000e+00  1.0578920250202791e-02 -6.3162777233428349e+00 0.0000000000000000e+00  3.5021357022126075e-02 -1.8100648405698829e-02 0.0000000000000000e+00  3.2221914837956778e-02 -1.8330902230754773e-02 0.0000000000000000e+00  3.0384100337242561e-02 -1.9526490340830645e-02 0.0000000000000000e+00  9.2493280437346286e-04 -4.6413123477017260e-02 0.0000000000000000e+00  2.2173385412716532e-04 -4.8699296204686410e-02 0.0000000000000000e+00  2.7157532422115499e-03 -4.9169148075875836e-02 0.0000000000000000e+00  5.1864442497300727e-03 -4.8500248352689720e-02 0.0000000000000000e+00  3.3189559744305221e-03 -4.5257827095484301e-02 0.0000000000000000e+00  -3.3083758984768598e-02 1.7193117144984327e-02 0.0000000000000000e+00  -3.0249357541198878e-02 1.7318061033484433e-02 0.0000000000000000e+00  -2.8290603808370823e-02 1.8211848692925268e-02 0.0000000000000000e+00  1.1487277513750052e-02 -6.3368786374530073e+00 0.0000000000000000e+00  -4.4540873418646857e-03 -6.6054539653964808e+00 0.0000000000000000e+00  1.2560160095411284e-02 -6.3336075659549183e+00 0.0000000000000000e+00  0.0000000000000000e+00 0.0000000000000000e+00 0.0000000000000000e+00  0.0000000000000000e+00 0.0000000000000000e+00 0.0000000000000000e+00  1.5348998077131089e-02 -6.3138193757925132e+00 0.0000000000000000e+00  -6.8927743371102260e-03 -6.5815081793525581e+00 0.0000000000000000e+00  9.8447394096301908e-03 -6.3119562257211976e+00 0.0000000000000000e+00  3.8052243507729178e-02 -2.1024172755951750e-02 0.0000000000000000e+00  3.7148482780363909e-02 -2.1010293973536012e-02 0.0000000000000000e+00  3.6905133937883569e-02 -2.1758075520561613e-02 0.0000000000000000e+00  7.3949818030112440e-04 -5.2621420941769435e-02 0.0000000000000000e+00  -4.6878512357246204e-04 -5.5226339519998946e-02 0.0000000000000000e+00  2.0164805456515111e-03 -5.5766689724639863e-02 0.0000000000000000e+00  4.5929740537075945e-03 -5.4897427504476300e-02 0.0000000000000000e+00  2.6935753842160328e-03 -5.1119164007164694e-02 0.0000000000000000e+00  -3.5347495029984827e-02 2.0084784944682642e-02 0.0000000000000000e+00  -3.4480261119479549e-02 1.9722961767365422e-02 0.0000000000000000e+00  -3.4370661539741922e-02 2.0036915883088254e-02 0.0000000000000000e+00  1.1801246035760380e-02 -6.3318363313485975e+00 0.0000000000000000e+00  -3.3330936201885677e-03 -6.6002951149785360e+00 0.0000000000000000e+00  1.3260302776462229e-02 -6.3289337836551649e+00 0.0000000000000000e+00  -3.5355406754367922e-11 4.7975360690113084e-11 0.0000000000000000e+00  0.0000000000000000e+00 0.0000000000000000e+00 0.0000000000000000e+00  1.4967187403076983e-02 -6.3085857009029898e+00 0.0000000000000000e+00  -7.6805756584048968e-03 -6.5759208586140971e+00 0.0000000000000000e+00  9.0002232896024305e-03 -6.3064766291438481e+00 0.0000000000000000e+00  3.5715453020145269e-02 -2.0739669646700827e-02 0.0000000000000000e+00  3.6345524081673880e-02 -2.0618209234854867e-02 0.0000000000000000e+00  3.7625879880093936e-02 -2.1069299996813021e-02 0.0000000000000000e+00  3.1173559819889645e-04 -5.9007470061481888e-02 0.0000000000000000e+00  -1.0166425630361567e-03 -6.1837734469324078e-02 0.0000000000000000e+00  1.3966203769502342e-03 -6.2460645059386463e-02 0.0000000000000000e+00  3.9635340793625238e-03 -6.1410088689357004e-02 0.0000000000000000e+00  2.3850766352639802e-03 -5.7288895830913102e-02 0.0000000000000000e+00  -3.2376390180823014e-02 1.9639330281255338e-02 0.0000000000000000e+00  -3.3056656897084057e-02 1.9217739775095360e-02 0.0000000000000000e+00  -3.4385976916107286e-02 1.9390999199840133e-02 0.0000000000000000e+00  1.3574606757239387e-02 -6.3243328129214236e+00 0.0000000000000000e+00  -1.9419068241695269e-03 -6.5926895404947530e+00 0.0000000000000000e+00  1.4090783833562404e-02 -6.3219787900745441e+00 0.0000000000000000e+00  0.0000000000000000e+00 0.0000000000000000e+00 0.0000000000000000e+00  0.0000000000000000e+00 0.0000000000000000e+00 0.0000000000000000e+00  1.4558460167998751e-02 -6.3027992816190483e+00 0.0000000000000000e+00  -8.2159780513265182e-03 -6.5698255164180548e+00 0.0000000000000000e+00  8.5394604929564504e-03 -6.3003518339145446e+00 0.0000000000000000e+00  2.9437040118087239e-02 -1.7869089194813059e-02 0.0000000000000000e+00  3.1316778447448360e-02 -1.7789255053132912e-02 0.0000000000000000e+00  3.3724244469354930e-02 -1.8145918747937147e-02 0.0000000000000000e+00  2.3270129031711377e-06 -6.4818933806003967e-02 0.0000000000000000e+00  -1.1858182893206110e-03 -6.7978838414063783e-02 0.0000000000000000e+00  9.0558641411578680e-04 -6.8694844358905147e-02 0.0000000000000000e+00  3.2228180989251295e-03 -6.7537583134186202e-02 0.0000000000000000e+00  2.1127719760825059e-03 -6.3209021882056168e-02 0.0000000000000000e+00  -2.5573142993266001e-02 1.6633411721619577e-02 0.0000000000000000e+00  -2.7491129316575290e-02 1.6317445308978808e-02 0.0000000000000000e+00  -2.9950891916931233e-02 1.6435562029830621e-02 0.0000000000000000e+00  1.5928913953444809e-02 -6.3150724380417422e+00 0.0000000000000000e+00  -6.3461440623563089e-04 -6.5833702591328302e+00 0.0000000000000000e+00  1.4913454258127047e-02 -6.3133626749509837e+00 0.0000000000000000e+00  0.0000000000000000e+00 0.0000000000000000e+00 0.0000000000000000e+00  0.0000000000000000e+00 0.0000000000000000e+00 0.0000000000000000e+00  1.4223473663242326e-02 -6.2970886957037200e+00 0.0000000000000000e+00  -8.3138777350873910e-03 -6.5639140782850367e+00 0.0000000000000000e+00  8.7192007260930848e-03 -6.2943142185020751e+00 0.0000000000000000e+00  2.0459092528498962e-02 -1.3106698246673298e-02 0.0000000000000000e+00  2.3269000986745159e-02 -1.3133693853180100e-02 0.0000000000000000e+00  2.6447675627688565e-02 -1.3450919676219815e-02 0.0000000000000000e+00  -5.1079738357754430e-05 -6.9430155353795472e-02 0.0000000000000000e+00  -9.6590650853217632e-04 -7.2965846736966072e-02 0.0000000000000000e+00  5.5499455869553033e-04 -7.3801399537773607e-02 0.0000000000000000e+00  2.3525001091120471e-03 -7.2609272957419133e-02 0.0000000000000000e+00  1.7261916899004369e-03 -6.8199015980329500e-02 0.0000000000000000e+00  -1.6196581144300906e-02 1.1757221860244100e-02 0.0000000000000000e+00  -1.9034371277542508e-02 1.1617813783161981e-02 0.0000000000000000e+00  -2.2257170081923430e-02 1.1769731480261154e-02 0.0000000000000000e+00  1.8287050653474284e-02 -6.3050692910544415e+00 0.0000000000000000e+00  3.1420612261389238e-04 -6.5733192511376508e+00 0.0000000000000000e+00  1.5608285303773207e-02 -6.3039832176489385e+00 0.0000000000000000e+00  0.0000000000000000e+00 0.0000000000000000e+00 0.0000000000000000e+00  0.0000000000000000e+00 0.0000000000000000e+00 0.0000000000000000e+00  1.4020746921388320e-02 -6.2921685104106775e+00 0.0000000000000000e+00  -7.9102453635699795e-03 -6.5589388010758922e+00 0.0000000000000000e+00  9.5995727509289742e-03 -6.2891498112866975e+00 0.0000000000000000e+00  9.8560813863604341e-03 -7.1211321400157799e-03 0.0000000000000000e+00  1.3270804000895418e-02 -7.2509211111956191e-03 0.0000000000000000e+00  1.6868262611845708e-02 -7.5265324325588618e-03 0.0000000000000000e+00  1.6992080671447427e-04 -7.2322650801893082e-02 0.0000000000000000e+00  -4.0614939761762493e-04 -7.6218002538131935e-02 0.0000000000000000e+00  3.4334122913061204e-04 -7.7179010339626083e-02 0.0000000000000000e+00  1.3956029808059492e-03 -7.6017033796867944e-02 0.0000000000000000e+00  1.2116740285484013e-03 -7.1646754550123773e-02 0.0000000000000000e+00  -5.3410704280560193e-03 5.6850158412518640e-03 0.0000000000000000e+00  -8.7714275686925636e-03 5.7283438144913913e-03 0.0000000000000000e+00  -1.