<?xml version="1.0"?>
<VTKFile type="UnstructuredGrid"  version="0.1"  >
<UnstructuredGrid>
<Piece  NumberOfPoints="589" NumberOfCells="1080">
<Points>
<DataArray  type="Float64"  NumberOfComponents="3"  format="ascii">-9 0 0  -8 0 0  -7 0 0  -6 0 0  -5 0 0  -4 0 0  -3 0 0  -2 0 0  -1 0 0  0 0 0  1 0 0  2 0 0  3 0 0  4 0 0  5 0 0  6 0 0  7 0 0  8 0 0  9 0 0  -9 2 0  -8.000007377625064 1.999988468184166 0  -7.000015488052542 1.999978396431262 0  -6.000026087745375 1.999970975105763 0  -5.00004321883487 1.999966740962567 0  -4.000025145414276 1.999975005855596 0  -3.000006590453776 1.999983061302506 0  -1.999997638202053 1.999990712437502 0  -0.9999963553987998 1.999996757811527 0  1.48218955916939e-07 1.999999381635104 0  0.9999963547938239 1.999997459235038 0  1.999996635706643 1.999991423487923 0  3.000003941018241 1.999984015267402 0  4.000019221761791 1.999976034262453 0  5.000041484579501 1.999972578534319 0  6.000025177050667 1.999973788914627 0  7.000015043199625 1.999979807787309 0  8.000007203256557 1.999989076288135 0  9 2 0  -9.000000000004983 4 0  -8.000011823880691 3.999971096884379 0  -7.000021019102194 3.99994619172036 0  -6.000026049829764 3.999929201793298 0  -5.000027242252598 3.999923863438828 0  -4.000000618565749 3.999927671533041 0  -2.99998282955506 3.999950657420376 0  -1.999978383465918 3.999980651720132 0  -0.9999855179050499 4.000004790952286 0  1.06032549735884e-06 4.000014440892047 0  0.9999873928391046 4.000006584535348 0  1.999979441011445 3.99998563080772 0  2.999983188225312 3.999957261791041 0  4.000000480993691 3.999928593035387 0  5.000026970663779 3.999918544373724 0  6.000025659205313 3.99992834442157 0  7.000020910533508 3.999946617954798 0  8.000011859408783 3.999971532652976 0  9 4 0  -9 6 0  -8.000026783796752 5.999937737630835 0  -7.000043208052401 5.999882329641959 0  -6.000041365082951 5.999840825675304 0  -5.00001897814137 5.999819994641183 0  -3.999966587309144 5.999854087267249 0  -2.999942833855453 5.999925629435354 0  -1.999952398315374 6.000000699069505 0  -0.9999761131949332 6.000042476161826 0  -1.910744321881553e-07 6.000050766115986 0  0.9999780688855371 6.000036972011422 0  1.999961437090792 5.999998952798688 0  2.999955167585241 5.999934707077241 0  3.999967688811477 5.999867948562778 0  5.000012932280376 5.999834487001269 0  6.000039890158824 5.999849009415292 0  7.000043986558166 5.999886867415031 0  8.000027747062489 5.999939782183001 0  9 6 0  -9 8 0  -8.00008317109501 7.999876978684902 0  -7.000138458998967 7.999762870818388 0  -6.000138851977623 7.999669777044254 0  -5.000061221867916 7.999617632550284 0  -3.999959622497087 7.999775784840162 0  -2.999978133405431 7.999961762845783 0  -2.0000161348562 8.000052587262294 0  -1.000019415796804 8.000063174541957 0  3.153663845715603e-06 8.000066309245325 0  1.000019848897628 8.000075537947565 0  2.00001242597925 8.000036967529946 0  2.999967483192855 7.99997141147296 0  3.999952054612059 7.999809226844594 0  5.000052856133645 7.999626181630532 0  6.000145552973946 7.999676359306992 0  7.00014838986219 7.99976691070804 0  8.000089650944403 7.999878835347778 0  9 8 0  -9 10 0  -8.000251000506228 9.999780638992464 0  -7.000453190000925 9.999559468720596 0  -6.000548337612511 9.999335118261365 0  -5.000455318852368 9.999107262936271 0  -4.000294282371049 9.999617969085898 0  -3.000320237682162 10.00005720235974 0  -2.000254823580374 9.999982211613004 0  -1.000113387783671 9.999958137693188 0  -8.93413562374254e-06 9.999952240651892 0  1.000094921102443 9.999952606370226 0  2.000233646526432 9.999949495480095 0  3.000355120189132 10.000109476366 0  4.000338976986068 9.999685955368022 0  5.000524732088378 9.999127011352661 0  6.000610456017415 9.9993423687493 0  7.000498970055356 9.999561547440857 0  8.000275120111068 9.999780983247588 0  9 10 0  -9 12 0  -8.000613653826324 11.99969169235124 0  -7.001195401798713 11.99936905068805 0  -6.001709161301648 11.99901493765217 0  -5.002110108058305 11.99860547057586 0  -4.002027731182119 11.99953647353149 0  -3.002101627395915 12.00045804864864 0  -2.001432576121045 12.00034815831492 0  -1.000689732519389 12.00028955064048 0  8.058879978819011e-05 12.00027976128661 0  1.000857528816037 12.00032086693716 0  2.00162318458466 12.00042434197725 0  3.002342020928934 12.00061874805481 0  4.0022604527886 11.99960017390103 0  5.002314946607902 11.99857300906024 0  6.001863210173871 11.99899345064231 0  7.001298511083458 11.99935537521248 0  8.000665366869487 11.99968494338272 0  9 12 0  -9 14 0  -8.001103063872863 13.99966025809768 0  -7.002208178848035 13.99930482352254 0  -6.003318858834954 13.99891661954096 0  -5.004442348971159 13.99847585268939 0  -4.004454053547283 13.99956330737052 0  -3.004460214985518 14.00066440676086 0  -2.002907136987422 14.00050929988836 0  -1.001376687435905 14.00042597893758 0  0.0001438823348174625 14.00040397068547 0  1.001666608937108 14.00043998424858 0  2.00320250134179 14.00053594689763 0  3.004759961355433 14.00069702771931 0  4.004770792974557 13.99956016671572 0  5.004778942698316 13.99843012826503 0  6.00356564146658 13.99887931285368 0  7.002370558260666 13.99927905520215 0  8.001183708700202 13.99964718381348 0  9 14 0  -9 16 0  -8.001583087934554 15.99969171192062 0  -7.003196747530054 15.99937192297766 0  -6.004874176657259 15.99902892806885 0  -5.006653916059062 15.99865079417249 0  -4.006717724701889 15.99957650218972 0  -3.006657037621076 16.00049719212232 0  -2.004294267300931 16.00038426039609 0  -1.002025452908762 16.00031793415874 0  0.0001986431623571995 16.00029679816669 0  1.002424527692463 16.00032000248772 0  2.004698674920844 16.0003877779791 0  3.007070489319863 16.00050120051663 0  4.007137579084016 15.99953057553394 0  5.007078953801619 15.99855911499725 0  6.005191514927755 15.99896343561805 0  7.003407433453357 15.9993295339546 0  8.001688149304536 15.99967085552872 0  9 16 0  -9 18 0  -8.001939577933941 17.99976920020865 0  -7.003928003503816 17.99953197092268 0  -6.006016654731762 17.99928199444852 0  -5.008261938936347 17.99901319932644 0  -4.008358372462524 17.9995791773355 0  -3.008264927333785 18.00014430238454 0  -2.005309542174088 18.00007359473593 0  -1.002497183470963 18.00002995761683 0  0.000246218840928731 18.00001308562441 0  1.002991146659683 18.00002254119278 0  2.005807983742801 18.00005779456495 0  3.008770465826346 18.00011808457261 0  4.008869098535282 17.99950849176719 0  5.008775240631318 17.99890053048037 0  6.006399731756921 17.99920076750263 0  7.004182459374324 17.9994793166698 0  8.002066526250616 17.99974330874033 0  9 18 0  -9 20 0  -8.002099522757891 19.99987238812626 0  -7.00425606551207 19.9997430401596 0  -6.006528825414102 19.99961040768511 0  -5.008981353583463 19.99947330923176 0  -4.009091457627886 19.99957881686198 0  -3.008982196213947 19.99968336484574 0  -2.005757212692099 19.99965523954633 0  -1.002695208315471 19.99963553622046 0  0.0002876373822326945 19.99962467435321 0  1.003272119776681 19.99962248186896 0  2.006339016371393 19.99962821631964 0  3.009572108307362 19.99964051238831 0  4.009683912447866 19.99949756088458 0  5.009573732606239 19.99935568487011 0  6.006970640158784 19.9995249446262 0  7.004549436789088 19.9996873738638 0  8.002245858405061 19.99984494720374 0  8.999999999982364 19.99999999999385 0  -9 22 0  -8.002030314750492 21.99998250054892 0  -7.004116971117854 21.99996724631755 0  -6.006318087845685 21.9999566955188 0  -5.008695320075574 21.99995373738558 0  -4.008803139788331 21.99957406459298 0  -3.008695693626913 21.99919330752342 0  -2.005557550493911 21.99920339720162 0  -1.002578748021043 21.99920596876931 0  0.0003225268226674591 21.99920180640931 0  1.003225619717854 21.99919092066488 0  2.006209883548538 21.99917256310284 0  3.009357156724528 21.99914521188393 0  4.009465221877072 21.99949415404934 0  5.009354805450346 21.9998436359611 0  6.00680979185168 21.99987643108314 0  7.004443387348813 21.99991483123601 0  8.002193103685498 21.99995662129179 0  9 22 0  -9 24 0  -8.001734627527167 24.00008363622478 0  -7.003517682532746 24.00017264297014 0  -6.005398972479698 24.00027261163434 0  -5.007430964624959 24.00038959159243 0  -4.007523865037014 23.9995650659659 0  -3.007432139541218 23.99873952954944 0  -2.004724994897708 23.99878145105593 0  -1.002154233433544 23.99880317179419 0  0.0003502636295892705 23.99880566616623 0  1.002856744379818 23.99878906957765 0  2.005433475663185 23.99875268315911 0  3.008150635469841 23.99869496789585 0  4.008241407238319 23.99949624623082 0  5.008144029340649 24.0002977525511 0  6.005930484067792 24.0002054659385 0  7.003870458226606 24.00012870410701 0  8.001910539487961 24.00006191462873 0  9 24 0  -9 26 0  -8.00124395088927 26.00016331611589 0  -7.002522939325872 26.00033421101373 0  -6.003872983899434 26.00052048926343 0  -5.005331859126738 26.00073042458533 0  -4.005400173410445 25.99955233649628 0  -3.005334665767884 25.99837342743703 0  -2.003351224660243 25.99843989767628 0  -1.001466617078522 25.99847687581162 0  0.0003702542372349221 25.99848548139959 0  1.002209219910201 25.99846595982577 0  2.00410013131535 25.99841768349755 0  3.00609415047283 25.99833914896593 0  4.006157551501131 25.99950195948996 0  5.00608338442031 26.00066477213587 0  6.004433116712396 26.00047239386091 0  7.002894688553925 26.00030269148802 0  8.001429317064236 26.00014771922498 0  9 26 0  -9 28 0  -8.000611631815495 28.00021271011602 0  -7.00124125860444 28.0004342667944 0  -6.001907435726342 28.00067374704509 0  -5.002629555719228 28.00094069654634 0  -4.002666642832265 27.99953702275354 0  -3.002634238079409 27.99813285711669 0  -2.001586358531096 27.99821588274987 0  -1.000589974982636 27.99826363500747 0  0.0003820585521248837 27.99827736330627 0  1.001356229490419 27.99825741799783 0  2.00235904398559 27.99820325123052 0  3.003417705291319 27.99811341530623 0  4.003447278668374 27.99950999431091 0  5.003403508083904 28.00090648820447 0  6.002484307233971 28.0006486387142 0  7.001624130786832 28.00041778791935 0 
[...]
<PointData  Vectors="f_44-0"> 
<DataArray  type="Float64"  Name="f_44-0"  NumberOfComponents="3" format="ascii">0.0000000000000000e+00 0.0000000000000000e+00 0.0000000000000000e+00  5.6947852187215141e-07 -1.0184857256026012e+01 0.0000000000000000e+00  4.8306149188885313e-07 -1.0295268907382065e+01 0.0000000000000000e+00  7.3423770478503117e-07 -9.7626589626568432e+00 0.0000000000000000e+00  0.0000000000000000e+00 0.0000000000000000e+00 0.0000000000000000e+00  0.0000000000000000e+00 0.0000000000000000e+00 0.0000000000000000e+00  0.0000000000000000e+00 0.0000000000000000e+00 0.0000000000000000e+00  0.0000000000000000e+00 0.0000000000000000e+00 0.0000000000000000e+00  0.0000000000000000e+00 0.0000000000000000e+00 0.0000000000000000e+00  0.0000000000000000e+00 0.0000000000000000e+00 0.0000000000000000e+00  0.0000000000000000e+00 0.0000000000000000e+00 0.0000000000000000e+00  0.0000000000000000e+00 0.0000000000000000e+00 0.0000000000000000e+00  0.0000000000000000e+00 0.0000000000000000e+00 0.0000000000000000e+00  0.0000000000000000e+00 0.0000000000000000e+00 0.0000000000000000e+00  0.0000000000000000e+00 0.0000000000000000e+00 0.0000000000000000e+00  5.8192633182621394e-07 -1.0198824932355526e+01 0.0000000000000000e+00  4.9013975952825643e-07 -1.0309469710680146e+01 0.0000000000000000e+00  7.4274661139945649e-07 -9.7760585254868673e+00 0.0000000000000000e+00  0.0000000000000000e+00 0.0000000000000000e+00 0.0000000000000000e+00  0.0000000000000000e+00 0.0000000000000000e+00 0.0000000000000000e+00  -5.2743223609798669e-02 -9.9208557649396756e+00 0.0000000000000000e+00  -6.9492795090071186e-03 -1.0313949335781949e+01 0.0000000000000000e+00  2.4967566882124908e-02 -9.9187126570418549e+00 0.0000000000000000e+00  2.0102941341128304e-03 -2.3146350982811782e-04 0.0000000000000000e+00  2.0319246902369944e-03 -8.5563036109666225e-04 0.0000000000000000e+00  1.0862907129192282e-03 -4.5779168693088146e-04 0.0000000000000000e+00  7.7359824467197671e-04 2.2434114383756057e-04 0.0000000000000000e+00  4.4363554356203181e-04 5.8424033026873020e-04 0.0000000000000000e+00  2.0201384904802182e-04 4.6034170029390751e-04 0.0000000000000000e+00  -4.6935964762605847e-05 3.2107474989036184e-05 0.0000000000000000e+00  -2.5915353233749687e-04 -4.9927806152680809e-04 0.0000000000000000e+00  -6.1917490875238639e-04 -1.3205482106591262e-03 0.0000000000000000e+00  -1.1798295636798700e-03 -1.4836364284329111e-03 0.0000000000000000e+00  -2.0941043251376632e-03 -2.6657137115703392e-03 0.0000000000000000e+00  -5.4274540765516244e-02 -9.9353712351596641e+00 0.0000000000000000e+00  -7.2334875066846892e-03 -1.0328567587077748e+01 0.0000000000000000e+00  2.4152873883814853e-02 -9.9335739803615315e+00 0.0000000000000000e+00  0.0000000000000000e+00 0.0000000000000000e+00 0.0000000000000000e+00  0.0000000000000000e+00 0.0000000000000000e+00 0.0000000000000000e+00  2.7108681913032063e-03 -9.9160945568201964e+00 0.0000000000000000e+00  -2.0079682139295767e-02 -1.0284451218152574e+01 0.0000000000000000e+00  5.3348796375975189e-03 -9.9205454031893012e+00 0.0000000000000000e+00  -1.2422820985241781e-03 -1.6287221887612065e-03 0.0000000000000000e+00  -2.7372606653270758e-05 6.0429230094594512e-04 0.0000000000000000e+00  1.5808124781805166e-04 2.2385196522276447e-03 0.0000000000000000e+00  6.7225187268974000e-06 2.1391086844366348e-03 0.0000000000000000e+00  -4.3972435819338756e-04 8.7689262128532927e-04 0.0000000000000000e+00  -5.3189339461186291e-04 -1.9994105751484125e-04 0.0000000000000000e+00  -3.0417573365961088e-04 -3.0204509688820419e-04 0.0000000000000000e+00  5.4561275219713087e-04 -8.2551046479895768e-04 0.0000000000000000e+00  6.6042200693555958e-04 -1.3760788863550221e-03 0.0000000000000000e+00  1.7926002767147388e-04 -3.7688495501793736e-04 0.0000000000000000e+00  -4.6927065092959401e-04 6.7854455509700862e-04 0.0000000000000000e+00  1.7650454462948390e-03 -9.9293566823889421e+00 0.0000000000000000e+00  -2.1081036582704934e-02 -1.0296663419765727e+01 0.0000000000000000e+00  3.4942819189133253e-03 -9.9327579906072447e+00 0.0000000000000000e+00  0.0000000000000000e+00 0.0000000000000000e+00 0.0000000000000000e+00  0.0000000000000000e+00 0.0000000000000000e+00 0.0000000000000000e+00  1.1865805520746097e-02 -9.9182182483892554e+00 0.0000000000000000e+00  -4.0599352004152163e-03 -1.0273998610014242e+01 0.0000000000000000e+00  7.2534018450165242e-03 -9.9067678273616497e+00 0.0000000000000000e+00  -3.1744610664288324e-03 3.4125356318748350e-03 0.0000000000000000e+00  -1.8812800700197764e-03 6.1716401727549960e-03 0.0000000000000000e+00  -1.9413912042975290e-03 4.7682085742932591e-03 0.0000000000000000e+00  -2.9451318606427703e-03 -7.8863028660333321e-04 0.0000000000000000e+00  -1.7580065017894643e-03 -3.3610849200299592e-03 0.0000000000000000e+00  -1.3941850760618250e-04 -1.8742219898769819e-03 0.0000000000000000e+00  1.1378773886293295e-03 -9.2817845878213965e-04 0.0000000000000000e+00  1.0146961675359853e-03 -4.5402710168825213e-04 0.0000000000000000e+00  1.6678147955494376e-03 4.5014055635713812e-04 0.0000000000000000e+00  2.3956131552080660e-03 -1.7279632655584950e-03 0.0000000000000000e+00  4.0859962472840588e-04 -4.2953213009395098e-03 0.0000000000000000e+00  1.3063618647213634e-02 -9.9301409800971463e+00 0.0000000000000000e+00  -6.2820822595415536e-03 -1.0288605881411241e+01 0.0000000000000000e+00  2.8558629675637277e-03 -9.9252360443864145e+00 0.0000000000000000e+00  0.0000000000000000e+00 0.0000000000000000e+00 0.0000000000000000e+00  0.0000000000000000e+00 0.0000000000000000e+00 0.0000000000000000e+00  1.2990496562437096e-02 -9.9231506529318683e+00 0.0000000000000000e+00  5.2746388308372067e-04 -1.0284037721253195e+01 0.0000000000000000e+00  9.7054941500867957e-03 -9.9269245631090097e+00 0.0000000000000000e+00  -1.2489458730931704e-02 1.7287704452866845e-04 0.0000000000000000e+00  -1.5288914733103445e-02 4.5676810624457036e-03 0.0000000000000000e+00  -5.2188042207536632e-03 -5.2052371742291317e-03 0.0000000000000000e+00  -4.6319909155248355e-03 -1.1235991746818875e-02 0.0000000000000000e+00  7.7964110835566545e-04 -6.2750986962229983e-03 0.0000000000000000e+00  2.2986387987257843e-03 -5.4447690074267705e-03 0.0000000000000000e+00  5.3239207150399181e-03 -1.0740817616254074e-02 0.0000000000000000e+00  4.9909077178731734e-03 -1.8862723162917164e-03 0.0000000000000000e+00  1.9329626628139248e-02 -6.2965376329341717e-03 0.0000000000000000e+00  2.0944519290780356e-02 -1.5309295112847279e-02 0.0000000000000000e+00  1.2503921876603631e-02 -1.2845639278927002e-02 0.0000000000000000e+00  1.2080997717771149e-02 -9.9306514040457419e+00 0.0000000000000000e+00  6.0401207721018607e-04 -1.0285810319135942e+01 0.0000000000000000e+00  7.0717950898172401e-03 -9.9217400383489238e+00 0.0000000000000000e+00  0.0000000000000000e+00 0.0000000000000000e+00 0.0000000000000000e+00  0.0000000000000000e+00 0.0000000000000000e+00 0.0000000000000000e+00  1.2494367787264773e-02 -9.9202449353904552e+00 0.0000000000000000e+00  -1.1881363940457002e-03 -1.0275453388733345e+01 0.0000000000000000e+00  5.7234993022083824e-03 -9.9057341237896015e+00 0.0000000000000000e+00  -5.4509905144254849e-02 2.7098550987314972e-02 0.0000000000000000e+00  -4.2523570428137605e-02 1.7038638041096118e-02 0.0000000000000000e+00  -2.1915829040337158e-02 8.5228579311187429e-03 0.0000000000000000e+00  3.3815902328021533e-03 -1.9750580179531081e-02 0.0000000000000000e+00  2.7028223448734359e-03 -7.5271589366557911e-03 0.0000000000000000e+00  5.3011234000088017e-03 -5.2799995554613857e-03 0.0000000000000000e+00  7.5781804364179880e-03 -5.7116111676783357e-03 0.0000000000000000e+00  5.9394133508475283e-03 -6.3622786689634505e-03 0.0000000000000000e+00  3.7023216408535030e-02 -1.1787845457813147e-02 0.0000000000000000e+00  4.5861019212975432e-02 -1.8858346120001777e-02 0.0000000000000000e+00  4.6513195975345423e-02 -1.9363932524334250e-02 0.0000000000000000e+00  1.9777033146893993e-02 -9.9219953288651617e+00 0.0000000000000000e+00  9.5259315513596631e-04 -1.0281335318046148e+01 0.0000000000000000e+00  8.3392147374245218e-03 -9.9196802421035937e+00 0.0000000000000000e+00  0.0000000000000000e+00 0.0000000000000000e+00 0.0000000000000000e+00  0.0000000000000000e+00 0.0000000000000000e+00 0.0000000000000000e+00  1.4758167208436377e-02 -9.9212317902062868e+00 0.0000000000000000e+00  4.3638482672346017e-03 -1.0275195069606283e+01 0.0000000000000000e+00  1.3548692093169508e-02 -9.9082632291770611e+00 0.0000000000000000e+00  -1.6858060268733564e-02 2.1974791872153746e-02 0.0000000000000000e+00  -2.7476214526536997e-02 1.9739584806720462e-02 0.0000000000000000e+00  -4.1649438191809843e-02 3.0279265510638684e-02 0.0000000000000000e+00  -1.6603397172012320e-02 -2.3136987927527365e-02 0.0000000000000000e+00  -5.8262613031720423e-03 -2.1429852272689384e-02 0.0000000000000000e+00  1.6098625877938645e-03 -1.8286284650844961e-02 0.0000000000000000e+00  5.7545738624716746e-03 -1.9802270883850913e-02 0.0000000000000000e+00  7.7780220592064346e-04 -2.7414549293319088e-02 0.0000000000000000e+00  7.9701212121424721e-03 -2.0266616515816991e-02 0.0000000000000000e+00  2.2450299886358032e-02 -1.1312799196048835e-02 0.0000000000000000e+00  3.3751517517433001e-02 5.0871230990413019e-03 0.0000000000000000e+00  2.0364801689726677e-02 -9.9238456162590403e+00 0.0000000000000000e+00  -3.7682973115792419e-03 -1.0285461412962864e+01 0.0000000000000000e+00  6.4452119414962587e-03 -9.9234003757542215e+00 0.0000000000000000e+00  0.0000000000000000e+00 0.0000000000000000e+00 0.0000000000000000e+00  0.0000000000000000e+00 0.0000000000000000e+00 0.0000000000000000e+00  1.7768617766386944e-02 -9.9287983316428825e+00 0.0000000000000000e+00  1.1065683175913955e-02 -1.0282151482306825e+01 0.0000000000000000e+00  2.3685004477896190e-02 -9.9152030259326818e+00 0.0000000000000000e+00  2.8421087265185944e-02 9.1139144303596757e-03 0.0000000000000000e+00  2.2095894319682993e-02 1.3627217145974874e-03 0.0000000000000000e+00  1.8646748327948770e-02 -1.4596192532461664e-02 0.0000000000000000e+00  1.7721008632936110e-02 -2.3658228144797514e-02 0.0000000000000000e+00  9.2474216647892397e-03 -1.9674325594109695e-02 0.0000000000000000e+00  2.8629523683541660e-03 -1.7196479919632992e-02 0.0000000000000000e+00  -2.2902806737954834e-03 -1.7704961486921928e-02 0.0000000000000000e+00  -8.0602271517806901e-03 -1.9561661784584825e-02 0.0000000000000000e+00  -2.6787705325929372e-02 -4.0755642228357336e-03 0.0000000000000000e+00  -2.0568950018473278e-02 3.6217637599497221e-03 0.0000000000000000e+00  -1.7123838214260820e-02 8.1325707417682115e-03 0.0000000000000000e+00  -1.2060760574288824e-04 -9.9364158642063352e+00 0.0000000000000000e+00  -8.0201249552638385e-03 -1.0297117617467922e+01 0.0000000000000000e+00  3.8957882692240322e-03 -9.9348328985319991e+00 0.0000000000000000e+00  0.0000000000000000e+00 0.0000000000000000e+00 0.0000000000000000e+00  0.0000000000000000e+00 0.0000000000000000e+00 0.0000000000000000e+00  2.0386654689895995e-02 -9.9426975424124926e+00 0.0000000000000000e+00  1.6672975851558178e-02 -1.0295967102546136e+01 0.0000000000000000e+00  3.2672579718469000e-02 -9.9306857797905064e+00 0.0000000000000000e+00  5.8209670872159683e-02 -3.8581555352080492e-03 0.0000000000000000e+00  5.3583734622965236e-02 -1.0233992432974889e-02 0.0000000000000000e+00  4.8426972385443079e-02 -1.5950742847037156e-02 0.0000000000000000e+00  2.4407446687849835e-02 -1.1739278589838391e-03 0.0000000000000000e+00  1.2652263326068794e-02 -3.4257228404672830e-03 0.0000000000000000e+00  3.0920605522561859e-03 -3.2242884192763975e-03 0.0000000000000000e+00  -6.1260228332565151e-03 -3.7865512269684488e-03 0.0000000000000000e+00  -1.9814864109683739e-02 -4.0655678862910535e-03 0.0000000000000000e+00  -5.7488807657352405e-02 7.4641634699553674e-03 0.0000000000000000e+00  -5.3350753166175935e-02 1.2609517781536704e-02 0.0000000000000000e+00  -4.8351672825367481e-02 1.9762434984720745e-02 0.0000000000000000e+00  -1.7104841575058077e-02 -9.9569736854008983e+00 0.0000000000000000e+00  -1.5442682762053243e-02 -1.0314849454650934e+01 0.0000000000000000e+00  1.8363574639079715e-03 -9.9520314980600890e+00 0.0000000000000000e+00  0.0000000000000000e+00 0.0000000000000000e+00 0.0000000000000000e+00  0.0000000000000000e+00 0.0000000000000000e+00 0.0000000000000000e+00  2.1916763891057917e-02 -9.9606775652350681e+00 0.0000000000000000e+00  1.9796782302899905e-02 -1.0314052944477673e+01 0.0000000000000000e+00  3.7625138392749953e-02 -9.9507247039240703e+00 0.0000000000000000e+00  7.6266313268637226e-02 -1.2612440554629909e-02 0.0000000000000000e+00  7.4000390808671726e-02 -1.5768546226456372e-02 0.0000000000000000e+00  7.1719043867582835e-02 -1.9860324531119588e-02 0.0000000000000000e+00  3.1478732250986852e-02 1.7561551826811208e-02 0.0000000000000000e+00  1.4967891079038471e-02 1.6500385772691070e-02 0.0000000000000000e+00  2.5724201346349783e-03 1.6869397236209931e-02 0.0000000000000000e+00  -9.7373079936358877e-03 1.6639428769938513e-02 0.0000000000000000e+00  -2.7701316837166472e-02 1.7498985911804921e-02 0.0000000000000000e+00  -7.5010955954700712e-02 1.6302817073123286e-02 0.0000000000000000e+00  -7.2648863694240451e-02 1.9311813956714816e-02 0.0000000000000000e+00  -7.0179222844496320e-02 2.3062174154897357e-02 0.0000000000000000e+00  -2.6909744540572607e-02 -9.9797931092666143e+00 0.0000000000000000e+00  -2.0142994052647512e-02 -1.0334406596764047e+01 0.0000000000000000e+00  3.3425874468422995e-04 -9.9712887717492364e+00 0.0000000000000000e+00  0.0000000000000000e+00 0.0000000000000000e+00 0.0000000000000000e+00  0.0000000000000000e+00 0.0000000000000000e+00 0.0000000000000000e+00  2.2155317443644445e-02 -9.9799147466843952e+00 0.0000000000000000e+00  2.0157575215818093e-02 -1.0333433211843156e+01 0.0000000000000000e+00  3.8436266145444827e-02 -9.9719990222499213e+00 0.0000000000000000e+00  8.3126456224751219e-02 -1.7834808754035762e-02 0.0000000000000000e+00  8.2775459116150349e-02 -1.8442064826181225e-02 0.0000000000000000e+00  8.1976514392481992e-02 -1.9793246252755591e-02 0.0000000000000000e+00  3.3581306493659896e-02 4.2662514313914407e-02 0.0000000000000000e+00  1.5491016976819963e-02 4.0254883610770606e-02 0.0000000000000000e+00  1.8492147100865157e-03 4.0337860710350622e-02 0.0000000000000000e+00  -1.1619907235556150e-02 4.0517200756285086e-02 0.0000000000000000e+00  -3.1178403226689536e-02 4.2817612394540433e-02 0.0000000000000000e+00  -8.1146283057318011e-02 2.1648216049201349e-02 0.0000000000000000e+00  -8.0773215346811700e-02 2.1845658467359089e-02 0.0000000000000000e+00  -8.0044317231484613e-02 2.2704443093779371e-02 0.0000000000000000e+00  -3.0461464135170833e-02 -1.0001974715902973e+01 0.0000000000000000e+00  -2.1940046562963739e-02 -1.0353650451990424e+01 0.0000000000000000e+00  -2.2023390207863913e-04 -9.9900368094397205e+00 0.0000000000000000e+00  -3.1121795154807136e-11 5.0294566897495062e-11 0.0000000000000000e+00  0.0000000000000000e+00 0.0000000000000000e+00 0.0000000000000000e+00  2.1176209387134725e-02 -9.9977896731321749e+00 0.0000000000000000e+00  1.8027931914100331e-02 -1.0351500569423704e+01 0.0000000000000000e+00  3.5589587807310190e-02 -9.9918036170459033e+00 0.0000000000000000e+00  7.9657573533085890e-02 -2.0013726496998997e-02 0.0000000000000000e+00  8.0805342018122839e-02 -1.8082369822417708e-02 0.0000000000000000e+00  8.1519415872121123e-02 -1.6713422144232173e-02 0.0000000000000000e+00  3.1972626965468529e-02 6.8121408354789428e-02 0.0000000000000000e+00  1.4469513655442783e-02 6.4655470624609648e-02 0.0000000000000000e+00  1.2499236479234668e-03 6.4484243056676077e-02 0.0000000000000000e+00  -1.1772728160381262e-02 6.5055800824955601e-02 0.0000000000000000e+00  -3.0693809196692207e-02 6.8654888878973488e-02 0.0000000000000000e+00  -7.7035610652556138e-02 2.3773558212695927e-02 0.0000000000000000e+00  -7.8170789762919621e-02 2.1469312425770503e-02 0.0000000000000000e+00  -7.8875632428617490e-02 1.9755690327370828e-02 0.0000000000000000e+00  -2.7648550478347498e-02 -1.0020479593777436e+01 0.0000000000000000e+00  -2.0510138267785694e-02 -1.0369915661474732e+01 0.0000000000000000e+00  4.6896977813845972e-04 -1.0006068965414812e+01 0.0000000000000000e+00  0.0000000000000000e+00 0.0000000000000000e+00 0.0000000000000000e+00  0.0000000000000000e+00 0.0000000000000000e+00 0.0000000000000000e+00  1.9183714120847253e-02 -1.0012147314063135e+01 0.0000000000000000e+00  1.3890500637383944e-02 -1.0366116815072001e+01 0.0000000000000000e+00  2.9791127222394232e-02 -1.0007878510778458e+01 0.0000000000000000e+00  6.7364238915946270e-02 -1.9408254880995148e-02 0.0000000000000000e+00  6.9679755005608704e-02 -1.5286674465226222e-02 0.0000000000000000e+00  7.1596305380718275e-02 -1.1595304446150746e-02 0.0000000000000000e+00  2.7047849181184563e-02 9.1514809599414076e-02 0.0000000000000000e+00  1.2175062859641870e-02 8.6988355516780816e-02 0.0000000000000000e+00  7.9697893266085095e-04 8.6555177562933627e-02 0.0000000000000000e+00  -1.0331782922520577e-02 8.7413769194540539e-02 0.0000000000000000e+00  -2.6604506271600090e-02 9.2136934816380550e-02 0.0000000000000000e+00  -6.4186433461552894e-02 2.3110675660117812e-02 0.0000000000000000e+00  -6.6467221081060318e-02 1.8682750675657226e-02 0.0000000000000000e+00  -6.8372695319098217e-02 1.4692144347033054e-02 0.0000000000000000e+00  -1.9707107164477513e-02 -1.0033314139761906e+01 0.0000000000000000e+00  -1.6229513723577282e-02 -1.0381260894200031e+01 0.0000000000000000e+00  2.3843360545167417e-03 -1.0017484625378758e+01 0.0000000000000000e+00  0.0000000000000000e+00 0.0000000000000000e+00 0.0000000000000000e+00  0.0000000000000000e+00 0.0000000000000000e+00 0.0000000000000000e+00  1.6459791293051064e-02 -1.0021428752193499e+01 0.0000000000000000e+00  8.3519520882716324e-03 -1.0375724602861084e+01 0.0000000000000000e+00  2.1920072250926473e-02 -1.0018556233947608e+01 0.0000000000000000e+00  4.8178056660967972e-02 -1.6436151684496549e-02 0.0000000000000000e+00  5.1303399078452064e-02 -1.0644882069214446e-02 0.0000000000000000e+00  5.4125830284086622e-02 -5.1401865047235708e-03 0.0000000000000000e+00  1.9460373927251175e-02 1.1028628740609928e-01 0.0000000000000000e+00  8.8361825136857673e-03 1.0487805086992975e-01 0.0000000000000000e+00  4.8759259106382090e-04 1.0418785350844172e-01 0.0000000000000000e+00  -7.5710687580407086e-03 1.0522057223130014e-01 0.0000000000000000e+00  -1.9591246660297913e-02 1.1081044261462596e-01 0.0000000000000000e+00  -4.4564060677370863e-02 2.0088761531901530e-02 0.0000000000000000e+00  -4.7631580469660595e-02 1.4074880092592890e-02 0.0000000000000000e+00  -5.0425937678428581e-02 8.3586279197699065e-03 0.0000000000000000e+00  -8.0613014714496119e-03 -1.0039190934878667e+01 0.0000000000000000e+00  -9.8533855515231441e-03 -1.0386453471871826e+01 0.0000000000000000e+00  5.2704082772320280e-03 -1.0023011784853392e+01 0.0000000000000000e+00  0.0000000000000000e+00 0.0000000000000000e+00 0.0000000000000000e+00  0.0000000000000000e+00 0.0000000000000000e+00 0.0000000000000000e+00  1.3331665296194929e-02 -1.0024745952210296e+01 0.0000000000000000e+00  2.0868354660982386e-03 -1.0379420122536679e+01 0.0000000000000000e+00  1.2948302994425773e-02 -1.0022852323487763e+01 0.0000000000000000e+00  2.4323075531497474e-02 -1.1580692599599512e-02 0.0000000000000000e+00  2.7902422050073771e-02 -4.7538829864030010e-03 0.0000000000000000e+00  3.1312463445077446e-02 1.9289965854571115e-03 0.0000000000000000e+00  1.0040585156317953e-02 1.2245319653052472e-01 0.0000000000000000e+00  4.7860442931083247e-03 1.1645280856361395e-01 0.0000000000000000e+00  3.0731092589492321e-04 1.1555034885778055e-01 0.0000000000000000e+00  -3.8553448890729139e-03 1.1664108110062961e-01 0.0000000000000000e+00  -1.0497200673570854e-02 1.2277315297789616e-01 0.0000000000000000e+00  -2.0422792468577665e-02 1.5200548309654002e-02 0.0000000000000000e+00  -2.3922699910867620e-02 8.2534270253789219e-03 0.0000000000000000e+00  -2.7293623270241620e-02 1.45636