<?xml version="1.0"?>
<VTKFile type="UnstructuredGrid"  version="0.1"  >
<UnstructuredGrid>
<Piece  NumberOfPoints="589" NumberOfCells="1080">
<Points>
<DataArray  type="Float64"  NumberOfComponents="3"  format="ascii">-9 0 0  -8 0 0  -7 0 0  -6 0 0  -5 0 0  -4 0 0  -3 0 0  -2 0 0  -1 0 0  0 0 0  1 0 0  2 0 0  3 0 0  4 0 0  5 0 0  6 0 0  7 0 0  8 0 0  9 0 0  -9 2 0  -8.000005702624319 1.999991446979269 0  -7.000011942725729 1.999983955169343 0  -6.000020009674955 1.999978387333566 0  -5.000032872594661 1.999975125720387 0  -4.000019423694643 1.999981412364586 0  -3.000005629890533 1.999987404656772 0  -1.999998928351568 1.999993043771567 0  -0.9999978598820828 1.999997506570105 0  -3.165937202206059e-07 1.999999481066968 0  0.9999969535922376 1.999998169360088 0  1.999997102300425 1.999993906773925 0  3.000002234569619 1.999988700627961 0  4.000012973582315 1.999983201524542 0  5.000028512982624 1.999981175947906 0  6.000017125521457 1.999981818776044 0  7.000010167277334 1.999985919542434 0  8.000004855136652 1.999992362729189 0  9 2 0  -9 4 0  -8.000009255241428 3.99997864953035 0  -7.000016578078791 3.999960214751888 0  -6.00002083542547 3.999947549945583 0  -5.000022252924439 3.999943372270315 0  -4.000002655500511 3.999946396179474 0  -2.999989540862212 3.999963342432232 0  -1.999986172071212 3.999985374230665 0  -0.9999912601091506 4.000003112347269 0  -9.500030609910844e-07 4.000010306423525 0  0.9999891434634113 4.000004844531405 0  1.999983314724571 3.999989974335059 0  2.999985855216698 3.999969864690271 0  3.999998072709501 3.999949736161855 0  5.000016863340798 3.999943319289502 0  6.000016534104454 3.999949806060224 0  7.000013750046489 3.999962469831544 0  8.000007882096595 3.99997994956763 0  9 4 0  -9 6 0  -8.000020536941925 5.999954191357626 0  -7.000033475344695 5.999913396334593 0  -6.00003302056494 5.999882765854086 0  -5.000017518576334 5.999867227818803 0  -3.999979231867573 5.99989243216809 0  -2.999961878089099 5.999944907212427 0  -1.999968903687494 5.999999879398777 0  -0.9999862081121482 6.000030416987252 0  -3.681267642119891e-06 6.00003658628715 0  0.9999806332213247 6.000026817719228 0  1.999968668674051 5.99999971580305 0  2.999964113085111 5.999953915919811 0  3.999973003463775 5.999906501808016 0  5.000005412540922 5.999883212856197 0  6.000025761927671 5.99989308707034 0  7.000029667834575 5.999919758231999 0  8.000018964851256 5.999957255485532 0  9 6 0  -9 8 0  -8.000062206898107 7.999909688139875 0  -7.000103941725811 7.999825929889114 0  -6.000105392428479 7.999757621982668 0  -5.000049657076692 7.999719415545784 0  -3.999975382959789 7.999835468590624 0  -2.999989363979824 7.999971787591133 0  -2.000017527209974 8.000038099491123 0  -1.00002011120782 8.000045490020044 0  -3.652712268499246e-06 8.000047615942457 0  1.000008679544528 8.000054279049925 0  2.000003585722131 8.000026869661461 0  2.99997141705323 7.999980230305304 0  3.99996047107891 7.999864334328001 0  5.000032942814187 7.999733526208927 0  6.00010075643941 7.999769194133925 0  7.000104012944099 7.999833752813191 0  8.000063088054185 7.99991358029973 0  9 8 0  -9 10 0  -8.000185717275203 9.999839008996831 0  -7.00033549264995 9.999676721464844 0  -6.000406459937119 9.999512170599681 0  -5.000338959855203 9.999345166536669 0  -4.00022093591897 9.999720459636038 0  -3.000240797466156 10.00004306916014 0  -2.000193426075948 9.999986980085088 0  -1.000089998780859 9.999968985695384 0  -1.400506834784055e-05 9.999964599915137 0  1.000061277864791 9.999964988200652 0  2.000161432592212 9.999963168682767 0  3.000249577438454 10.0000786470723 0  4.000238471759606 9.999775449333963 0  5.000371570833221 9.999375258059313 0  6.00043387800394 9.999529816221083 0  7.000355019777467 9.999686715676198 0  8.000195822281913 9.999843563763996 0  9 10 0  -9 12 0  -8.00045277285167 11.99977359850942 0  -7.000881912812667 11.9995367057396 0  -6.001260696320553 11.99927677399887 0  -5.001555988280251 11.99897630004437 0  -4.001495299567589 11.99966178005113 0  -3.001550314555256 12.00034049663059 0  -2.001068096175789 12.00025794502334 0  -1.000530644954869 12.0002129124439 0  2.788480070285991e-05 12.00020352311536 0  1.000592250170011 12.00023114732319 0  2.001149649918362 12.00030394554359 0  3.001674883544262 12.00044238481868 0  4.001617208310046 11.99971421647891 0  5.001655600173481 11.9989800774967 0  6.001331162716763 11.99928125249861 0  7.000927134575072 11.99953999407535 0  8.000474903565253 11.99977526276095 0  9 12 0  -9 14 0  -8.000813899823495 13.99975024676952 0  -7.001629021973481 13.99948900797654 0  -6.00244763829007 13.99920378302846 0  -5.003274773027738 13.99888008075477 0  -4.003282931190383 13.99968300702741 0  -3.003288335914809 14.00049608233786 0  -2.002164564490414 14.00037900551956 0  -1.001055988819699 14.00031441806635 0  4.653331153727337e-05 14.00029453038718 0  1.001151748637761 14.00031678211992 0  2.002267798315443 14.00038240247055 0  3.003401078177352 14.00049497295952 0  4.003410086088913 13.9996862550688 0  5.003415065087556 13.99888258002025 0  6.002545716426618 13.99920278001745 0  7.001691421052685 13.99948737767495 0  8.000844276567634 13.9997492044117 0  9 14 0  -9 16 0  -8.001169508327337 15.99977289989557 0  -7.002361118333546 15.99953738717733 0  -6.003598839005197 15.99928490029213 0  -5.004910604093918 15.99900671997808 0  -4.004956921916889 15.99969404498735 0  -3.004913361701846 16.00037775066849 0  -2.003201872783463 16.00029061163685 0  -1.001557833356077 16.00023752958688 0  5.442943238833057e-05 16.00021734528042 0  1.001668655114019 16.00022930120286 0  2.003318606731327 16.00027341680293 0  3.005040208089289 16.00035031840745 0  4.005089538765511 15.99966572452701 0  5.005046566687157 15.99898059681932 0  6.003698206605533 15.99926696047817 0  7.002425983633298 15.99952601531506 0  8.001201510225778 15.99976736022506 0  9 16 0  -9 18 0  -8.00143604431344 17.99982922016244 0  -7.002907581740021 17.99965372912455 0  -6.004451949306913 17.99946889769737 0  -5.006110167215744 17.99927028490336 0  -4.006180458857856 17.99969698781346 0  -3.006112959904117 18.0001231380927 0  -2.003971460607748 18.00006640463064 0  -1.001933547930209 18.0000294795894 0  5.442988615938246e-05 18.00001202336815 0  1.002043531175196 18.00001359595792 0  2.004084743352147 18.00003368378729 0  3.006231470513241 18.00007159941948 0  4.00630309912949 17.99965027704321 0  5.006234964055896 17.99923019001859 0  6.004544033342714 17.99944053260198 0  7.002968221024343 17.9996355887485 0  8.001466134162582 17.99982037151476 0  9 18 0  -9 20 0  -8.001559991122717 19.99990437519789 0  -7.003161505162967 19.99980744905987 0  -6.004847654253108 19.999708057133 0  -5.006664731753415 19.99960530653781 0  -4.006745133038904 19.99969739603181 0  -3.006665976668631 19.99978889479986 0  -2.004329047781285 19.9997632707187 0  -1.00211063946247 19.99974387046469 0  4.98844731966497e-05 19.9997309009289 0  1.002210964226009 19.99972413389307 0  2.004431007774455 19.99972292103159 0  3.006770562278238 19.9997261557389 0  4.006851226547742 19.9996425183913 0  5.006771683798755 19.99955974644909 0  6.004927209228794 19.99967529501551 0  7.003214217463636 19.999786277418 0  8.001586247839549 19.99989398982606 0  8.999999999993246 19.99999999999801 0  -9 22 0  -8.001517275875759 21.99998472399827 0  -7.003075675138621 21.99997102971932 0  -6.004717615614911 21.99996065394888 0  -5.006488096581116 21.99995564650413 0  -4.006566913191291 21.99969447722102 0  -3.006488833169924 21.99943267132744 0  -2.004214929938034 21.99943534525343 0  -1.002057316033891 21.99943265119494 0  4.310861905114237e-05 21.9994250808613 0  1.00214364782472 21.99941255873623 0  2.004301581647732 21.99939445265329 0  3.006575940287645 21.99936956309531 0  4.006653552587926 21.99963999345706 0  5.006574290739296 21.999910947325 0  6.004782357610558 21.99992831739807 0  7.003118867822921 21.99995003391878 0  8.001538877192461 21.99997439442102 0  9 22 0  -9 24 0  -8.001309481321362 24.00005874643985 0  -7.002654440566252 24.00012133583917 0  -6.004071353187342 24.00019177283875 0  -5.005598638684376 24.00027438854259 0  -4.005666621715878 23.99968856316227 0  -3.005599628100051 23.99910218311097 0  -2.003637961774226 23.9991288012412 0  -1.001776300996198 23.99914085129608 0  3.592753107092934e-05 23.99913898095357 0  1.001847929506663 23.99912322547371 0  2.003708890554153 23.99909301042983 0  3.005669323620062 23.99904714720738 0  4.005734261224796 23.99964145671441 0  5.005664894011473 24.00023609764595 0  6.004121717803915 24.00016394173869 0  7.002688323094691 24.00010320474865 0  8.001326508537456 24.00004980768855 0  9 24 0  -9 26 0  -8.000959107017383 26.00011740908819 0  -7.001944077493972 26.0002402644908 0  -6.002981473074539 26.00037417562023 0  -5.00409914742812 26.0005250865541 0  -4.004149258004661 25.99968016708163 0  -3.004100930012873 25.99883482946187 0  -2.002663197369809 25.9988803214734 0  -1.001298563753604 25.99890452493235 0  2.974696595517539e-05 25.99890821041541 0  1.001357579411522 25.99889151308386 0  2.002720758032813 25.99885393323091 0  3.004155998282751 25.99879433428669 0  4.004201129244986 25.99964570940054 0  5.004148956030016 26.0004972593226 0  6.003019944764643 26.00035389243718 0  7.001970240771833 26.00022702212932 0  8.000972337237689 26.0001108716816 0  9 26 0  -9 28 0  -8.000504505580825 28.00015430024499 0  -7.001022603934318 28.00031497801323 0  -6.001568276191589 28.00048857625224 0  -5.002156134227681 28.0006819731494 0  -4.002183583963034 27.99967011660827 0  -3.002158949620166 27.99865805070084 0  -2.001398211282536 27.99871677697014 0  -1.000676519083497 27.99875004776209 0  2.557701408802243e-05 27.99875874393999 0  1.000727033405337 27.9987430971054 0  2.001446783988466 27.99870268972056 0  3.002204211237928 27.99863645387131 0  4.002224962086682 27.99965184256506 0  5.002195051115248 28.00066732081975 0  6.001598868537093 28.0004778742869 0  7.001043652982366 28.00030797978361 0  8.000515221533849
[...]
<PointData  Vectors="f_44-0"> 
<DataArray  type="Float64"  Name="f_44-0"  NumberOfComponents="3" format="ascii">0.0000000000000000e+00 0.0000000000000000e+00 0.0000000000000000e+00  3.1952211185653388e-08 -2.6872173662530154e+00 0.0000000000000000e+00  1.1707296691184108e-07 -2.6543319484779526e+00 0.0000000000000000e+00  2.4317710607051986e-07 -2.3595804129857516e+00 0.0000000000000000e+00  0.0000000000000000e+00 0.0000000000000000e+00 0.0000000000000000e+00  0.0000000000000000e+00 0.0000000000000000e+00 0.0000000000000000e+00  0.0000000000000000e+00 0.0000000000000000e+00 0.0000000000000000e+00  0.0000000000000000e+00 0.0000000000000000e+00 0.0000000000000000e+00  0.0000000000000000e+00 0.0000000000000000e+00 0.0000000000000000e+00  0.0000000000000000e+00 0.0000000000000000e+00 0.0000000000000000e+00  0.0000000000000000e+00 0.0000000000000000e+00 0.0000000000000000e+00  0.0000000000000000e+00 0.0000000000000000e+00 0.0000000000000000e+00  0.0000000000000000e+00 0.0000000000000000e+00 0.0000000000000000e+00  0.0000000000000000e+00 0.0000000000000000e+00 0.0000000000000000e+00  0.0000000000000000e+00 0.0000000000000000e+00 0.0000000000000000e+00  3.3384517131718281e-08 -2.6963626305680597e+00 0.0000000000000000e+00  1.1818810254896191e-07 -2.6627400856171719e+00 0.0000000000000000e+00  2.4277641579734099e-07 -2.3657988330011861e+00 0.0000000000000000e+00  0.0000000000000000e+00 0.0000000000000000e+00 0.0000000000000000e+00  0.0000000000000000e+00 0.0000000000000000e+00 0.0000000000000000e+00  -1.2389038173911530e-03 -2.4811084821185210e+00 0.0000000000000000e+00  3.5651873380785604e-03 -2.6492158522143114e+00 0.0000000000000000e+00  1.8857587366117826e-02 -2.4896458640159498e+00 0.0000000000000000e+00  1.1436997230622188e-03 -4.2948214131668987e-04 0.0000000000000000e+00  1.2960022315990675e-03 -8.4546482719009548e-04 0.0000000000000000e+00  7.2098251174379394e-04 -4.8779947392557795e-04 0.0000000000000000e+00  5.5394188291468620e-04 8.2299310852990015e-05 0.0000000000000000e+00  3.1544642759266298e-04 3.9780821587650806e-04 0.0000000000000000e+00  1.0787083755430179e-04 3.3104332936053558e-04 0.0000000000000000e+00  -1.0563495927314338e-04 7.9056536260714698e-06 0.0000000000000000e+00  -2.6031069019054543e-04 -4.1864252177312833e-04 0.0000000000000000e+00  -4.7023951022803003e-04 -1.0624362634164880e-03 0.0000000000000000e+00  -7.6534251801997015e-04 -1.2210940153405923e-03 0.0000000000000000e+00  -1.2735071624120904e-03 -2.0417313561180831e-03 0.0000000000000000e+00  -1.2396159988807740e-03 -2.4887897003218407e+00 0.0000000000000000e+00  3.8226989005101771e-03 -2.6575342600171084e+00 0.0000000000000000e+00  1.9054893924450075e-02 -2.4975452923783701e+00 0.0000000000000000e+00  0.0000000000000000e+00 0.0000000000000000e+00 0.0000000000000000e+00  0.0000000000000000e+00 0.0000000000000000e+00 0.0000000000000000e+00  8.7362554646381405e-03 -2.4898131599489526e+00 0.0000000000000000e+00  -2.3051500595341772e-03 -2.6393521861364921e+00 0.0000000000000000e+00  8.7070409047343110e-03 -2.4918663414009155e+00 0.0000000000000000e+00  -1.1965739712387984e-03 -1.8044521457045400e-03 0.0000000000000000e+00  -8.8955242457917368e-05 -9.9345972293577808e-05 0.0000000000000000e+00  1.8773422750941216e-04 1.2977453047688765e-03 0.0000000000000000e+00  1.1425848518376967e-04 1.4415047371020018e-03 0.0000000000000000e+00  -2.6708549153101437e-04 6.7664153851938334e-04 0.0000000000000000e+00  -4.2874341147570668e-04 -5.0821318425614862e-05 0.0000000000000000e+00  -3.5279354082436393e-04 -1.8221638329582750e-04 0.0000000000000000e+00  2.2099626871970246e-04 -7.1029301687456725e-04 0.0000000000000000e+00  3.3677931698493997e-04 -1.3084269471536120e-03 0.0000000000000000e+00  1.1075043418049479e-04 -7.7695093085018371e-04 0.0000000000000000e+00  -1.8349559311031281e-04 -9.3562482576359295e-05 0.0000000000000000e+00  9.0390459676354951e-03 -2.4973215092721657e+00 0.0000000000000000e+00  -2.1772423172472417e-03 -2.6470460573796055e+00 0.0000000000000000e+00  8.5071309960590581e-03 -2.4994547716898259e+00 0.0000000000000000e+00  0.0000000000000000e+00 0.0000000000000000e+00 0.0000000000000000e+00  0.0000000000000000e+00 0.0000000000000000e+00 0.0000000000000000e+00  8.1749229502975484e-03 -2.4914687076365718e+00 0.0000000000000000e+00  -2.3320690514867042e-03 -2.6404003159696510e+00 0.0000000000000000e+00  8.3297525632434304e-03 -2.4913484078573345e+00 0.0000000000000000e+00  -2.5953840357294134e-03 1.2033594120119456e-03 0.0000000000000000e+00  -1.2323438069057702e-03 3.5229011514966869e-03 0.0000000000000000e+00  -1.1010534634555346e-03 3.0032256426891007e-03 0.0000000000000000e+00  -1.9272843960499006e-03 -6.0244957430036076e-04 0.0000000000000000e+00  -1.2164774259502335e-03 -2.2123139862076022e-03 0.0000000000000000e+00  -1.7881932466067794e-04 -1.0542757181188031e-03 0.0000000000000000e+00  6.1722526041770259e-04 -4.4374023393533094e-04 0.0000000000000000e+00  4.1251090055207545e-04 -3.5489218668470875e-04 0.0000000000000000e+00  8.4968178820424354e-04 -1.4250284835124380e-04 0.0000000000000000e+00  1.4872516803231921e-03 -2.2146077382794714e-03 0.0000000000000000e+00  3.5732920880048437e-04 -4.3219658514635339e-03 0.0000000000000000e+00  1.0146996975919148e-02 -2.4981999056036646e+00 0.0000000000000000e+00  -1.3173630862086333e-03 -2.6467238918406566e+00 0.0000000000000000e+00  8.3240556392623830e-03 -2.4972524426598377e+00 0.0000000000000000e+00  0.0000000000000000e+00 0.0000000000000000e+00 0.0000000000000000e+00  0.0000000000000000e+00 0.0000000000000000e+00 0.0000000000000000e+00  7.3759686417841260e-03 -2.4909991586073206e+00 0.0000000000000000e+00  -3.6996351381933224e-03 -2.6410804271663380e+00 0.0000000000000000e+00  5.6731868350634804e-03 -2.4937546340147483e+00 0.0000000000000000e+00  -9.8251008153366418e-03 -2.7631516401823812e-03 0.0000000000000000e+00  -1.1206445527456779e-02 1.7408470010985447e-03 0.0000000000000000e+00  -3.7915687507741108e-03 -4.1932901616904368e-03 0.0000000000000000e+00  -3.6646256700501732e-03 -8.0422487036244539e-03 0.0000000000000000e+00  3.5742879981250992e-04 -4.2219403177156467e-03 0.0000000000000000e+00  1.6470254667370287e-03 -3.5655346417366065e-03 0.0000000000000000e+00  3.9898884319183930e-03 -7.3627148086418369e-03 0.0000000000000000e+00  3.7231304094411831e-03 -1.1583279505065084e-03 0.0000000000000000e+00  1.3936074722192325e-02 -4.8412433750053378e-03 0.0000000000000000e+00  1.5004449110115076e-02 -1.2578787073079429e-02 0.0000000000000000e+00  9.5322459537176153e-03 -1.2061823908961334e-02 0.0000000000000000e+00  1.1545650584851628e-02 -2.4969126702090629e+00 0.0000000000000000e+00  1.2628853318979045e-04 -2.6447232781143630e+00 0.0000000000000000e+00  8.9760083396457444e-03 -2.4948405377350316e+00 0.0000000000000000e+00  0.0000000000000000e+00 0.0000000000000000e+00 0.0000000000000000e+00  0.0000000000000000e+00 0.0000000000000000e+00 0.0000000000000000e+00  5.7723326628190720e-03 -2.4866934012654012e+00 0.0000000000000000e+00  -8.3914976272830427e-03 -2.6363420880811765e+00 0.0000000000000000e+00  -4.7913041941667822e-03 -2.4880657875606578e+00 0.0000000000000000e+00  -4.4431817459946031e-02 1.3694913821192631e-02 0.0000000000000000e+00  -3.4204708142944823e-02 9.9539091146670158e-03 0.0000000000000000e+00  -1.8876743781117797e-02 6.8489862381397176e-03 0.0000000000000000e+00  6.1964389845716415e-04 -1.4958415002784749e-02 0.0000000000000000e+00  1.1150081413225312e-03 -5.9546177403782471e-03 0.0000000000000000e+00  3.8020418527435706e-03 -4.2960667561508332e-03 0.0000000000000000e+00  6.2093578794954465e-03 -4.5768344577380160e-03 0.0000000000000000e+00  6.0159671648926027e-03 -5.0777562476089950e-03 0.0000000000000000e+00  2.9496752912504674e-02 -7.8586905691738155e-03 0.0000000000000000e+00  3.5838081878070228e-02 -1.5974287061857065e-02 0.0000000000000000e+00  3.7746320340081838e-02 -2.0337450293117287e-02 0.0000000000000000e+00  1.7516449747946417e-02 -2.4939082534340420e+00 0.0000000000000000e+00  2.4874745650359130e-03 -2.6404946447959095e+00 0.0000000000000000e+00  9.8427205276258416e-03 -2.4905005469910106e+00 0.0000000000000000e+00  0.0000000000000000e+00 0.0000000000000000e+00 0.0000000000000000e+00  0.0000000000000000e+00 0.0000000000000000e+00 0.0000000000000000e+00  4.8105398905661269e-03 -2.4788573275217884e+00 0.0000000000000000e+00  -1.0547567217369177e-02 -2.6284498529557494e+00 0.0000000000000000e+00  -4.1387796575020237e-03 -2.4821212964553983e+00 0.0000000000000000e+00  -2.8636961472872723e-02 6.1758819515728546e-03 0.0000000000000000e+00  -3.5975734728409411e-02 1.1446066492083573e-02 0.0000000000000000e+00  -4.7170300186139325e-02 2.6224703700559210e-02 0.0000000000000000e+00  -1.8830558893295331e-02 -2.2937771540005748e-02 0.0000000000000000e+00  -6.8615213229573594e-03 -2.4236912307084746e-02 0.0000000000000000e+00  2.2253112758477546e-03 -2.2800050559279878e-02 0.0000000000000000e+00  9.1631371583028101e-03 -2.2406533844268599e-02 0.0000000000000000e+00  1.1177811195966605e-02 -2.1971901063043267e-02 0.0000000000000000e+00  2.1988734143016421e-02 -1.0371507199665215e-02 0.0000000000000000e+00  3.2067924054256486e-02 -1.0992701275530927e-02 0.0000000000000000e+00  4.0746957396740190e-02 -6.1917736721475575e-03 0.0000000000000000e+00  2.2596290439206791e-02 -2.4888299557805729e+00 0.0000000000000000e+00  4.0130120677032578e-03 -2.6337113977060791e+00 0.0000000000000000e+00  1.0501006650025695e-02 -2.4836082294035733e+00 0.0000000000000000e+00  0.0000000000000000e+00 0.0000000000000000e+00 0.0000000000000000e+00  0.0000000000000000e+00 0.0000000000000000e+00 0.0000000000000000e+00  3.8089191655856715e-03 -2.4673920163624863e+00 0.0000000000000000e+00  -1.3200319391170657e-02 -2.6171344593614778e+00 0.0000000000000000e+00  -8.4924991337796095e-03 -2.4712156675030483e+00 0.0000000000000000e+00  -1.2115702334199358e-02 -4.3873942508511404e-03 0.0000000000000000e+00  -1.6936513156359450e-02 -2.0969509405637035e-03 0.0000000000000000e+00  -1.9562229440022241e-02 -5.8592263081260563e-03 0.0000000000000000e+00  -1.4184387834785544e-02 -3.7340777569337756e-02 0.0000000000000000e+00  -5.9781749465211672e-03 -3.9864488145757403e-02 0.0000000000000000e+00  1.9425492302026495e-03 -3.9572632652862254e-02 0.0000000000000000e+00  9.8605062764843023e-03 -3.8953999204911258e-02 0.0000000000000000e+00  1.6439752829938412e-02 -3.5516580157174835e-02 0.0000000000000000e+00  1.3551253791927027e-02 2.0113369326310569e-03 0.0000000000000000e+00  1.8209531687269492e-02 -3.0956110885038641e-04 0.0000000000000000e+00  2.0766545838409624e-02 -4.9083495220263946e-03 0.0000000000000000e+00  2.4419163506949799e-02 -2.4780970048512057e+00 0.0000000000000000e+00  6.8852947094528438e-03 -2.6244005121667784e+00 0.0000000000000000e+00  1.1492441677957436e-02 -2.4736310035442046e+00 0.0000000000000000e+00  0.0000000000000000e+00 0.0000000000000000e+00 0.0000000000000000e+00  0.0000000000000000e+00 0.0000000000000000e+00 0.0000000000000000e+00  2.6903080662187898e-03 -2.4519837531456155e+00 0.0000000000000000e+00  -1.6093941995690416e-02 -2.6018844242453842e+00 0.0000000000000000e+00  -1.2710206561893828e-02 -2.4557084310307666e+00 0.0000000000000000e+00  -6.3109847803721432e-03 -1.2797902495113719e-02 0.0000000000000000e+00  -1.0245138547911134e-02 -1.0665890997012291e-02 0.0000000000000000e+00  -1.3669509988471832e-02 -8.0699466488988215e-03 0.0000000000000000e+00  -1.8572680074335504e-02 -5.5677666865481854e-02 0.0000000000000000e+00  -8.6179549631637126e-03 -5.7624864882973380e-02 0.0000000000000000e+00  1.9335866860253625e-03 -5.8460506319231539e-02 0.0000000000000000e+00  1.2275380527148503e-02 -5.8233629773622522e-02 0.0000000000000000e+00  2.0877531543104143e-02 -5.4890167414289912e-02 0.0000000000000000e+00  7.2054548494766418e-03 8.9733197746135578e-03 0.0000000000000000e+00  1.0706000585695178e-02 6.0418768692965625e-03 0.0000000000000000e+00  1.3900653834943089e-02 4.5902661267453329e-03 0.0000000000000000e+00  2.7914163459006425e-02 -2.4636040346508228e+00 0.0000000000000000e+00  1.0050510461303055e-02 -2.6108174069769094e+00 0.0000000000000000e+00  1.2701750220605868e-02 -2.4596622250270967e+00 0.0000000000000000e+00  0.0000000000000000e+00 0.0000000000000000e+00 0.0000000000000000e+00  0.0000000000000000e+00 0.0000000000000000e+00 0.0000000000000000e+00  1.6849870865367769e-03 -2.4329466837107825e+00 0.0000000000000000e+00  -1.8544537552510228e-02 -2.5829474361972209e+00 0.0000000000000000e+00  -1.6629001972214900e-02 -2.4356400052985614e+00 0.0000000000000000e+00  -4.8391007557728790e-03 -1.6682514393544713e-02 0.0000000000000000e+00  -7.2464337839798481e-03 -1.4770175277177557e-02 0.0000000000000000e+00  -8.2818959302574310e-03 -1.3556312683997304e-02 0.0000000000000000e+00  -2.1947288713598433e-02 -8.1305507449240949e-02 0.0000000000000000e+00  -1.0989984344713650e-02 -8.1068270273222609e-02 0.0000000000000000e+00  1.5466355055346198e-03 -8.1592027611647369e-02 0.0000000000000000e+00  1.3838468293564894e-02 -8.1878621593000758e-02 0.0000000000000000e+00  2.4266119228197634e-02 -7.9943804775800528e-02 0.0000000000000000e+00  6.0743134783174616e-03 1.2615095797431768e-02 0.0000000000000000e+00  8.4788207445949202e-03 1.0749846340700222e-02 0.0000000000000000e+00  9.5698870400691104e-03 9.4477522114179043e-03 0.0000000000000000e+00  3.1857046110836652e-02 -2.4435127608786535e+00 0.0000000000000000e+00  1.3248917903534739e-02 -2.5928184192967088e+00 0.0000000000000000e+00  1.3907452111169819e-02 -2.4414513079713118e+00 0.0000000000000000e+00  0.0000000000000000e+00 0.0000000000000000e+00 0.0000000000000000e+00  0.0000000000000000e+00 0.0000000000000000e+00 0.0000000000000000e+00  1.0833074214063342e-03 -2.4114919340224827e+00 0.0000000000000000e+00  -1.9828389003605226e-02 -2.5615274084207020e+00 0.0000000000000000e+00  -1.8805442197558798e-02 -2.4124517786701345e+00 0.0000000000000000e+00  -5.2189881531266996e-03 -1.7227410417899242e-02 0.0000000000000000e+00  -6.2976195552919183e-03 -1.6764373967214270e-02 0.0000000000000000e+00  -6.1199926274759647e-03 -1.6857832687112599e-02 0.0000000000000000e+00  -2.3568977819166906e-02 -1.1042359646278471e-01 0.0000000000000000e+00  -1.2356764002455941e-02 -1.0776745111488441e-01 0.0000000000000000e+00  1.1057884489536955e-03 -1.0783247061846200e-01 0.0000000000000000e+00  1.4353892967517564e-02 -1.0861490970375474e-01 0.0000000000000000e+00  2.6015171997914557e-02 -1.0867167624912087e-01 0.0000000000000000e+00  6.8284546088193225e-03 1.3046754532390483e-02 0.0000000000000000e+00  7.8545389820194114e-03 1.2470977864428398e-02 0.0000000000000000e+00  7.5575123102286437e-03 1.2390854226526818e-02 0.0000000000000000e+00  3.3874193531292618e-02 -2.4196140100420487e+00 0.0000000000000000e+00  1.5070190243092373e-02 -2.5712263674410321e+00 0.0000000000000000e+00  1.4591064790449172e-02 -2.4199545946688747e+00 0.0000000000000000e+00  6.4772641861774888e-11 1.0317841518199749e-10 0.0000000000000000e+00  0.0000000000000000e+00 0.0000000000000000e+00 0.0000000000000000e+00  1.0954264481510252e-03 -2.3895369196238261e+00 0.0000000000000000e+00  -1.9461287912560455e-02 -2.5395734823147311e+00 0.0000000000000000e+00  -1.8431259984259627e-02 -2.3884260998850526e+00 0.0000000000000000e+00  -5.9672217502701411e-03 -1.5373482869057885e-02 0.0000000000000000e+00  -5.9178577740830263e-03 -1.6538945690401038e-02 0.0000000000000000e+00  -4.6354233615548178e-03 -1.8127523067726550e-02 0.0000000000000000e+00  -2.2833788053586847e-02 -1.4015348563384444e-01 0.0000000000000000e+00  -1.2366169159054479e-02 -1.3517581109821306e-01 0.0000000000000000e+00  7.0348701180946252e-04 -1.3467735480024104e-01 0.0000000000000000e+00  1.3597558535761995e-02 -1.3594644119062446e-01 0.0000000000000000e+00  2.5376784039645221e-02 -1.3830544143665699e-01 0.0000000000000000e+00  7.8465474631631144e-03 1.1026125338836451e-02 0.0000000000000000e+00  7.7308338060387404e-03 1.2108559889625737e-02 0.0000000000000000e+00  6.3900619334689782e-03 1.3626667526823876e-02 0.0000000000000000e+00  3.3516571696791744e-02 -2.3945391396191607e+00 0.0000000000000000e+00  1.5140281339933552e-02 -2.5482815830252488e+00 0.0000000000000000e+00  1.4571488611863496e-02 -2.3972013976887032e+00 0.0000000000000000e+00  0.0000000000000000e+00 0.0000000000000000e+00 0.0000000000000000e+00  0.0000000000000000e+00 0.0000000000000000e+00 0.0000000000000000e+00  1.7988622946400342e-03 -2.3693212224922600e+00 0.0000000000000000e+00  -1.7312790283157707e-02 -2.5193508033343432e+00 0.0000000000000000e+00  -1.5289668953251267e-02 -2.3661423432333621e+00 0.0000000000000000e+00  -6.1741874260564699e-03 -1.1788926521398679e-02 0.0000000000000000e+00  -5.1567776605000101e-03 -1.4546990656012230e-02 0.0000000000000000e+00  -3.1027229724951829e-03 -1.7630647896073787e-02 0.0000000000000000e+00  -1.9543194315285908e-02 -1.6738616610130297e-01 0.0000000000000000e+00  -1.0917363361740168e-02 -1.6043072012364368e-01 0.0000000000000000e+00  3.8686004085935436e-04 -1.5937286975074169e-01 0.0000000000000000e+00  1.1547547199053987e-02 -1.6106219726911308e-01 0.0000000000000000e+00  2.2204268258126929e-02 -1.6571171079426197e-01 0.0000000000000000e+00  8.2606692362703904e-03 7.3154439775979059e-03 0.0000000000000000e+00  7.1770458105940840e-03 1.0017227126274095e-02 0.0000000000000000e+00  5.0580473619124423e-03 1.3037237902738084e-02 0.0000000000000000e+00  3.0518120931054504e-02 -2.3709131055522610e+00 0.0000000000000000e+00  1.3352040772232766e-02 -2.5264194907053117e+00 0.0000000000000000e+00  1.3812792304184009e-02 -2.3755797320213694e+00 0.0000000000000000e+00  0.0000000000000000e+00 0.0000000000000000e+00 0.0000000000000000e+00  0.0000000000000000e+00 0.0000000000000000e+00 0.0000000000000000e+00  3.1526819952397210e-03 -2.3530200802661807e+00 0.0000000000000000e+00  -1.3545248313059689e-02 -2.5030498858004986e+00 0.0000000000000000e+00  -9.6179887457470397e-03 -2.3480529532645216e+00 0.0000000000000000e+00  -5.4488198082013667e-03 -7.1461498766048790e-03 0.0000000000000000e+00  -3.6621523302546683e-03 -1.1227444062928305e-02 0.0000000000000000e+00  -1.1303138846074992e-03 -1.5527193947272293e-02 0.0000000000000000e+00  -1.3999378752476317e-02 -1.8917981284007745e-01 0.0000000000000000e+00  -8.1690079508872585e-03 -1.8081612296450075e-01 0.0000000000000000e+00  1.6132624439680576e-04 -1.7927488564140714e-01 0.0000000000000000e+00  8.3690707986456003e-03 -1.8127008063732225e-01 0.0000000000000000e+00  1.6752188100540234e-02 -1.8791426866329589e-01 0.0000000000000000e+00  7.6856531696477409e-03 2.5730662955676057e-03 0.0000000000000000e+00  5.8302053338524125e-03 6.6176447389227101e-03 0.0000000000000000e+00  3.2332229922736842e-03 1.0875502335804069e-02 0.0000000000000000e+00  2.5097069485086589e-02 -2.3512940865669543e+00 0.0000000000000000e+00  9.8665934767609258e-03 -2.5079941953596512e+00 0.0000000000000000e+00  1.2388523154559079e-02 -2.3574114621224056e+00 0.0000000000000000e+00  0.0000000000000000e+00 0.0000000000000000e+00 0.0000000000000000e+00  0.0000000000000000e+00 0.0000000000000000e+00 0.0000000000000000e+00  5.0235708811400314e-03 -2.3424335097487035e+00 0.0000000000000000e+00  -8.5409002682756800e-03 -2.4924750363512529e+00 0.0000000000000000e+00  -2.0012144984725058e-03 -2.3361677875657030e+00 0.0000000000000000e+00  -3.8064615479725433e-03 -2.0506337062972967e-03 0.0000000000000000e+00  -1.4658702085498260e-03 -7.0126191224590129e-03 0.0000000000000000e+00  1.2631335821694882e-03 -1.2085306316458181e-02 0.0000000000000000e+00  -6.7923194597906706e-03 -2.0318298298095971e-01 0.0000000000000000e+00  -4.4372660005854566e-03 -1.9412260623099731e-01 0.0000000000000000e+00  2.6043563080819504e-05 -1.9222475679542883e-01 0.0000000000000000e+00  4.3749829839842885e-03 -1.9437185326424772e-01 0.0000000000000000e+00  9.5852622079369287e-03 -2.0248956081644065e-01 0.0000000000000000e+00  6.1348401179840964e-03 -2.5949549429815939e-03 0.0000000000000000e+00  3.7263010717134004e-03 2.3496657963666310e-03 0.000000000000