<?xml version="1.0"?>
<VTKFile type="UnstructuredGrid"  version="0.1"  >
<UnstructuredGrid>
<Piece  NumberOfPoints="589" NumberOfCells="1080">
<Points>
<DataArray  type="Float64"  NumberOfComponents="3"  format="ascii">-9 0 0  -8 0 0  -7 0 0  -6 0 0  -5 0 0  -4 0 0  -3 0 0  -2 0 0  -1 0 0  0 0 0  1 0 0  2 0 0  3 0 0  4 0 0  5 0 0  6 0 0  7 0 0  8 0 0  9 0 0  -9 2 0  -7.99999491089492 2.000006961117482 0  -6.999989384005787 2.000013094009223 0  -5.999982378405794 2.000017728351241 0  -4.999971502668227 2.000020576241959 0  -3.9999825309411 2.000015278623583 0  -2.999993876541238 2.000010407557488 0  -1.999999520038626 2.000005897031579 0  -1.000000682878663 2.000002311000573 0  9.843856873338935e-07 2.000000662278789 0  1.000002959394286 2.000001540332341 0  2.000002833025865 2.000004647863191 0  2.999999035003917 2.000008392152973 0  3.99999120347496 2.000012140803155 0  4.999980116912589 2.000012828218166 0  5.999988367213496 2.000012730166609 0  6.999993212379631 2.000009990490527 0  7.999996784792585 2.000005453805279 0  9 2 0  -9.000000000009988 4 0  -7.99999157284371 4.000017235406729 0  -6.999984682846319 4.00003218242234 0  -5.999980237324054 4.000042602618249 0  -4.999978078698859 4.000046369716238 0  -3.999993808968384 4.000043742775015 0  -3.000004410665159 4.000030228614166 0  -2.000007356621361 4.000012724097694 0  -1.000003665040711 3.999998605395861 0  3.65486473120318e-06 3.99999270807879 0  1.000011207322263 3.999996541891118 0  2.000015718965043 4.000007501973585 0  3.00001394752356 4.0000222701907 0  4.000004939832216 4.00003667839048 0  4.999991025110483 4.00004003524922 0  5.999990354946882 4.00003602694833 0  6.99999151574443 4.000027169228105 0  7.999994998340394 4.000014576314623 0  9 4 0  -9 6 0  -7.99998208575244 6.000036664524362 0  -6.999970203743729 6.000069379273389 0  -5.999968948688623 6.000094090369569 0  -4.999979611216258 6.0001069433895 0  -4.000009861285656 6.000086759496368 0  -3.000023595238245 6.00004519125349 0  -2.000018072357164 6.000001753556051 0  -1.000004580140843 5.999977742696409 0  8.858048331143198e-06 5.999972734012901 0  1.000020744604389 5.999979907526953 0  2.000029721541544 6.000000074562241 0  3.000033171124044 6.000034157553958 0  4.000026540630529 6.000069104721923 0  5.000002033874245 6.000085353079525 0  5.999985018780809 6.000078722366794 0  6.999980531629366 6.000059289802553 0  7.999987135232753 6.000031633421816 0  9 6 0  -9 8 0  -7.999948466928974 8.000071898499883 0  -6.999913214659032 8.000138596871414 0  -5.999909988625184 8.000193016375192 0  -4.999952158370597 8.000223482494279 0  -4.000010756735535 8.000131345104226 0  -2.999998969576749 8.000023327890506 0  -1.999976177937541 7.9999713643741 0  -0.9999739967046483 7.999966310188102 0  1.287529920773367e-05 7.999964988227902 0  1.000002713567219 7.999959828545238 0  2.00000602698244 7.999979988997374 0  3.000030193698232 8.000014442585927 0  4.000038184107594 8.000101245591878 0  4.99998297973357 8.000199292048784 0  5.99992956664748 8.000172632997156 0  6.999925179903346 8.000124311488362 0  7.999954223651589 8.000064603031054 0  9 8 0  -9 10 0  -7.999849695543272 10.00012795652417 0  -6.999728084256887 10.00025696635406 0  -5.999669416632466 10.00038781594112 0  -4.999721285788383 10.00052069854303 0  -3.999814904823661 10.00022160411441 0  -2.999797992250666 9.999964725794172 0  -1.999834925562864 10.00001158255718 0  -0.9999168619769923 10.00002669269497 0  2.357708088629046e-05 10.00003036694731 0  0.9999650411705008 10.00002982480652 0  1.99988789580472 10.00003034007074 0  2.999818965342722 9.999941353230048 0  3.999826314442058 10.000169541937 0  4.999725915481203 10.00047074183894 0  5.999677951955824 10.00035323679431 0  6.999736070705374 10.00023490492631 0  7.999854358832747 10.00011716596528 0  9 10 0  -9 12 0  -7.999636014468837 12.00017985197909 0  -6.999290955774017 12.00036806245414 0  -5.998986265706226 12.0005746330307 0  -4.998748384252729 12.00081354724751 0  -3.998796983748468 12.00026564520488 0  -2.998752320712171 11.99972265995715 0  -1.999121706214784 11.99979175081383 0  -0.9995364882854025 11.9998311627026 0  3.055242864858324e-05 11.99984248640002 0  0.9995912386047611 11.99982487921569 0  1.999154999359536 11.99977227588764 0  2.998740172598455 11.99966920252752 0  3.998781852024639 12.0002148172969 0  4.998754227821417 12.00076444532128 0  5.999001732966971 12.00053724547671 0  6.999306147304821 12.00034318661824 0  7.999644998915715 12.00016747386029 0  9 12 0  -9 14 0  -7.999346341419344 14.00019837106322 0  -6.998691897151822 14.00040581792078 0  -5.998035101087014 14.00063222104491 0  -4.997372070908644 14.00088903102371 0  -3.997366344607389 14.00024473999557 0  -2.997361300475701 13.99959204004228 0  -1.99822743636788 13.99969074013301 0  -0.999083661189334 13.99974807860043 0  6.296897940195954e-05 13.99977041138912 0  0.9992054886276621 13.99976001564628 0  1.998337157048758 13.99971622907207 0  2.997452323812912 13.99963657020843 0  3.997442719308904 14.00023372243441 0  4.997440623018439 14.00082670724179 0  5.998097276204785 14.0005888854597 0  6.998738125396805 14.00037819964992 0  7.999370825014232 14.00018488890181 0  9 14 0  -9 16 0  -7.999059420384651 16.00018062552017 0  -6.998101602884984 16.00036782948552 0  -5.997107839654135 16.00056830292799 0  -4.996056223575473 16.00078882450919 0  -3.996020362619873 16.00023252195604 0  -2.996053876694459 15.99967900968567 0  -1.997373799620162 15.99975547744904 0  -0.99864271034816 15.99980525832804 0  0.0001117992354686771 15.99982946553319 0  0.9988635349884399 15.99982892385235 0  1.997586193999087 15.99980387713119 0  2.996251735623713 15.99975411795885 0  3.996211919957005 16.00024726210238 0  4.996246155181424 16.00074068645034 0  5.997255026132411 16.00053210882007 0  6.998202095381409 16.00034380158547 0  7.99911039167755 16.00016866282185 0  9 16 0  -9 18 0  -7.998841034389454 18.0001365762096 0  -6.997654354080864 18.00027680096474 0  -5.996410804663868 18.00042425495122 0  -4.995078278394597 18.00058233674152 0  -3.995023364101474 18.00022799078987 0  -2.995075305726164 17.99987397096091 0  -1.99672545815495 17.99992720550565 0  -0.9982960457045523 17.99996498382302 0  0.0001716606617998211 17.99998776185213 0  0.9986383532849087 17.99999609147001 0  1.997064769875042 17.99999060205485 0  2.995409813250034 17.99997207815012 0  3.995354085208831 18.00025793867667 0  4.995407051570477 18.00054272273573 0  5.996658842286781 18.00039432911251 0  6.997820447621715 18.00025677744768 0  7.998924310535031 18.00012654925833 0  9 18 0  -9 20 0  -7.99873312256432 20.00007792570398 0  -6.997433825863231 20.00015686340902 0  -5.996068440458666 20.0002377161714 0  -4.994600778334497 20.00032115503217 0  -3.994537829766625 20.00022654561307 0  -2.994598737803527 20.00013216363186 0  -1.996396762216962 20.00016093584028 0  -0.9981032329910056 20.00018489279473 0  0.0002355163049899693 20.0002040317261 0  0.9985748192854645 20.00021870759939 0  1.99687006212023 20.00022962246625 0  2.995075067069871 20.00023785566897 0  3.995013517886535 20.00026368726226 0  4.995074353028822 20.00028861260451 0  5.996422236133899 20.00021320158783 0  6.997669060881237 20.00014046839783 0  7.998850557702148 20.00006971315771 0  8.999999999973028 20.00000000000515 0  -9 22 0  -7.998754535405316 22.00001521845759 0  -6.997476906736125 22.00002926088009 0  -5.996133940479073 22.00004082918236 0  -4.994690436232287 22.00004837823444 0  -3.994628814740893 22.00022814589365 0  -2.994689119949387 22.00040802001865 0  -1.996435664318372 22.00041398458128 0  -0.9980919627482865 22.00042413559033 0  0.0002971342650333704 22.00043821431331 0  0.9986881389133251 22.00045642181708 0  1.997037629184012 22.00047941087312 0  2.995300953398771 22.00050829499671 0  3.995242447090004 22.00026580945326 0  4.99530195335038 22.00002253887843 0  5.996588744745956 22.00002136109118 0  6.997778319742962 22.00001624220332 0  7.99890471131365 22.00000869768927 0  9 22 0  -9 24 0  -7.99890425017468 23.99995721340303 0  -6.997780587163591 23.99991155048986 0  -5.996600346300588 23.99986001016035 0  -4.995333337697783 23.99979934565842 0  -3.995280396517598 24.00023175089571 0  -2.99533272655168 24.0006640910226 0  -1.99683687379858 24.00065023293034 0  -0.9982628887414939 24.00064761473041 0  0.0003511451248718972 24.00065582709 0  0.9989681786384748 24.00067494966574 0  1.997551236143066 24.00070554893845 0  2.996062455431271 24.00074868220583 0  3.996013880118351 24.00026458172363 0  4.996064612816754 23.99977975188157 0  5.997143034335439 23.99984528418135 0  6.998139668936546 23.99990171771085 0  7.999082984517546 23.99995229231777 0  9 24 0  -9 26 0  -7.999165229998764 25.99991071848601 0  -6.998309797157431 25.99981734933814 0  -5.997412553774812 25.9997156804714 0  -4.996451324319732 25.99960125652941 0  -3.996412518168384 26.00023644697652 0  -2.996451263729742 26.00087145408785 0  -1.99755187344219 26.00084140086011 0  -0.9985945800569663 26.00082765074148 0  0.0003932128614210636 26.00082967495829 0  0.9993848072197654 26.0008474414482 0  1.998353582889019 26.00088141367901 0  2.997272371650166 26.00093255232913 0  3.99723880548528 26.00026049470702 0  4.997275331533833 25.99958782578349 0  5.998023373028326 25.99970561293066 0  6.998713625988979 25.99981063909665 0  7.999366135672832 25.99990736352729 0  9 26 0  -9 28 0  -7.99950841058449 27.99988058029701 0  -6.999005422935356 27.9997563474201 0  -5.998479413360124 27.99962236518746 0  -4.997918223746754 27.99947345431498 0  -3.997897079972565 28.00024154227615 0  -2.997918385216515 28.00100936907032 0  -1.998499712950987 28.00096723356416 0  -0.999048822442572 28.00094446314166 0  0.0004201361626805799 28.00094042345703 0  0.9998933886142355 28.00095497445045 0  1.999357241139557 28.00098846960083 0  2.99879778462938 28.0010417563177 0  3.998782541231778 28.00025424597531 0  4.998801357467752 27.99946627559088 0  5.999133709781045 27.99961700622975 0  6.999437824938278 27.9997527857033 0 
[...]
<PointData  Vectors="f_44-0"> 
<DataArray  type="Float64"  Name="f_44-0"  NumberOfComponents="3" format="ascii">0.0000000000000000e+00 0.0000000000000000e+00 0.0000000000000000e+00  1.1875169126005253e-07 -1.1297746853540977e+01 0.0000000000000000e+00  2.2043357179424901e-07 -1.2252802552357419e+01 0.0000000000000000e+00  1.6865830214708130e-07 -1.1535726468901530e+01 0.0000000000000000e+00  0.0000000000000000e+00 0.0000000000000000e+00 0.0000000000000000e+00  0.0000000000000000e+00 0.0000000000000000e+00 0.0000000000000000e+00  0.0000000000000000e+00 0.0000000000000000e+00 0.0000000000000000e+00  0.0000000000000000e+00 0.0000000000000000e+00 0.0000000000000000e+00  0.0000000000000000e+00 0.0000000000000000e+00 0.0000000000000000e+00  0.0000000000000000e+00 0.0000000000000000e+00 0.0000000000000000e+00  0.0000000000000000e+00 0.0000000000000000e+00 0.0000000000000000e+00  0.0000000000000000e+00 0.0000000000000000e+00 0.0000000000000000e+00  0.0000000000000000e+00 0.0000000000000000e+00 0.0000000000000000e+00  0.0000000000000000e+00 0.0000000000000000e+00 0.0000000000000000e+00  0.0000000000000000e+00 0.0000000000000000e+00 0.0000000000000000e+00  1.1845928985511386e-07 -1.1268333343445276e+01 0.0000000000000000e+00  2.1562261105969186e-07 -1.2226422554007668e+01 0.0000000000000000e+00  1.6373499605947136e-07 -1.1511060275200311e+01 0.0000000000000000e+00  0.0000000000000000e+00 0.0000000000000000e+00 0.0000000000000000e+00  0.0000000000000000e+00 0.0000000000000000e+00 0.0000000000000000e+00  -1.1774802303312135e-02 -1.1456653801808656e+01 0.0000000000000000e+00  -2.0102639305482995e-02 -1.2234088753237668e+01 0.0000000000000000e+00  -4.0981400788120834e-02 -1.1461514167619503e+01 0.0000000000000000e+00  -5.0575630491146207e-04 6.6105290158075881e-04 0.0000000000000000e+00  -7.9709340906570700e-04 9.4960671226759893e-04 0.0000000000000000e+00  -4.7837670396356965e-04 5.8969340541773017e-04 0.0000000000000000e+00  -4.1999570326714189e-04 5.3091561086586586e-05 0.0000000000000000e+00  -2.3319781521945714e-04 -2.5905173355157728e-04 0.0000000000000000e+00  -3.0472514582401364e-05 -2.3687117061441302e-04 0.0000000000000000e+00  1.7616678468046980e-04 2.7072758948425154e-05 0.0000000000000000e+00  2.9508974499230884e-04 4.0557971086960611e-04 0.0000000000000000e+00  3.8898422737461771e-04 9.5866482451799036e-04 0.0000000000000000e+00  4.6749266662691986e-04 1.1261199482435222e-03 0.0000000000000000e+00  6.5732359172455338e-04 1.6937854614875580e-03 0.0000000000000000e+00  -1.2625819800493491e-02 -1.1433093793487654e+01 0.0000000000000000e+00  -2.1411124672777285e-02 -1.2211948514272409e+01 0.0000000000000000e+00  -4.2968399268024093e-02 -1.1438301092346089e+01 0.0000000000000000e+00  0.0000000000000000e+00 0.0000000000000000e+00 0.0000000000000000e+00  0.0000000000000000e+00 0.0000000000000000e+00 0.0000000000000000e+00  -1.4153210094722082e-02 -1.1464112412933931e+01 0.0000000000000000e+00  -2.2714302547357748e-02 -1.2263778611276667e+01 0.0000000000000000e+00  -3.6142605799942724e-02 -1.1451278508996792e+01 0.0000000000000000e+00  1.3108610757703860e-03 2.1797517582506096e-03 0.0000000000000000e+00  1.6436318290799111e-04 7.4689127606863590e-04 0.0000000000000000e+00  -2.3002655141835952e-04 -6.0196139337698640e-04 0.0000000000000000e+00  -2.2436130756889328e-04 -9.7276259708498145e-04 0.0000000000000000e+00  1.3699567897787178e-04 -5.5639005665794844e-04 0.0000000000000000e+00  3.7125777780640804e-04 -5.3520588108160935e-05 0.0000000000000000e+00  4.1122503626460371e-04 1.2214893110113381e-04 0.0000000000000000e+00  7.5016733912152881e-06 7.1397400261984784e-04 0.0000000000000000e+00  -1.3427150985675072e-04 1.4222289950556726e-03 0.0000000000000000e+00  -1.2456314275386004e-04 1.2591721239009223e-03 0.0000000000000000e+00  -1.2372478480398842e-04 8.5703991391292947e-04 0.0000000000000000e+00  -1.4452087898740470e-02 -1.1434113091784772e+01 0.0000000000000000e+00  -2.3142936127774842e-02 -1.2234523894097924e+01 0.0000000000000000e+00  -3.7075400375087275e-02 -1.1421179915142766e+01 0.0000000000000000e+00  0.0000000000000000e+00 0.0000000000000000e+00 0.0000000000000000e+00  0.0000000000000000e+00 0.0000000000000000e+00 0.0000000000000000e+00  -7.8999179931880728e-03 -1.1453677611091866e+01 0.0000000000000000e+00  -1.1297948820573916e-02 -1.2259007917804761e+01 0.0000000000000000e+00  -2.5581145153676998e-02 -1.1437454564578319e+01 0.0000000000000000e+00  2.3716815043216930e-03 6.1858231895495067e-04 0.0000000000000000e+00  7.9226474446075464e-04 -1.5711103917103247e-03 0.0000000000000000e+00  4.6974479100529324e-04 -1.7616390328871890e-03 0.0000000000000000e+00  1.2271711817566104e-03 5.4748537251939403e-04 0.0000000000000000e+00  8.4670256224670174e-04 1.4896491439644257e-03 0.0000000000000000e+00  1.9380660043412276e-04 4.9387700985243353e-04 0.0000000000000000e+00  -2.7235518756859575e-04 1.0907281752710052e-04 0.0000000000000000e+00  2.4657695760281960e-05 3.5491581143017606e-04 0.0000000000000000e+00  -2.7520834519687519e-04 7.4508331800525788e-04 0.0000000000000000e+00  -9.2465973697733190e-04 2.9686706936365454e-03 0.0000000000000000e+00  -4.5237565681413637e-04 4.9085603596695955e-03 0.0000000000000000e+00  -1.1283004799267997e-02 -1.1425985041269451e+01 0.0000000000000000e+00  -1.6870068532761968e-02 -1.2235089864476514e+01 0.0000000000000000e+00  -3.1930219450613730e-02 -1.1420345966061925e+01 0.0000000000000000e+00  0.0000000000000000e+00 0.0000000000000000e+00 0.0000000000000000e+00  0.0000000000000000e+00 0.0000000000000000e+00 0.0000000000000000e+00  -5.3698277327092897e-03 -1.1458040357143068e+01 0.0000000000000000e+00  -6.1997922129908853e-03 -1.2260101378606995e+01 0.0000000000000000e+00  -2.1506611844452062e-02 -1.1440786821791416e+01 0.0000000000000000e+00  8.5827793446592356e-03 5.7215878646775286e-03 0.0000000000000000e+00  8.8757397356091002e-03 6.0854596266782419e-04 0.0000000000000000e+00  2.8989418181798827e-03 3.8612288476854062e-03 0.0000000000000000e+00  3.1532108670305221e-03 6.2187037187625928e-03 0.0000000000000000e+00  -1.1168468979273604e-04 2.9271843283179503e-03 0.0000000000000000e+00  -1.3392201193629506e-03 2.3351121921962844e-03 0.0000000000000000e+00  -3.3217663349393977e-03 5.2099194143651181e-03 0.0000000000000000e+00  -3.1055262827465176e-03 7.1812340041450882e-04 0.0000000000000000e+00  -1.0792444759354317e-02 4.1723832510286553e-03 0.0000000000000000e+00  -1.1496591817808002e-02 1.1622793045470052e-02 0.0000000000000000e+00  -8.0818450642260713e-03 1.2780564111478628e-02 0.0000000000000000e+00  -8.5536642312577654e-03 -1.1428721888175319e+01 0.0000000000000000e+00  -7.8323263737638798e-03 -1.2233238936330553e+01 0.0000000000000000e+00  -2.3083751906724233e-02 -1.1421349088150620e+01 0.0000000000000000e+00  0.0000000000000000e+00 0.0000000000000000e+00 0.0000000000000000e+00  0.0000000000000000e+00 0.0000000000000000e+00 0.0000000000000000e+00  -3.4803112071993387e-03 -1.1461576872496194e+01 0.0000000000000000e+00  3.7484828274688578e-03 -1.2261265247807081e+01 0.0000000000000000e+00  2.7703238856867005e-04 -1.1443672547292675e+01 0.0000000000000000e+00  4.0596087507704146e-02 -3.4964195383612954e-03 0.0000000000000000e+00  3.0729268279289883e-02 -4.7887385761668667e-03 0.0000000000000000e+00  1.8235123091129526e-02 -6.0568330958874908e-03 0.0000000000000000e+00  1.5850792986619366e-03 1.2550248283393201e-02 0.0000000000000000e+00  3.1853869597281663e-05 5.2917379765120244e-03 0.0000000000000000e+00  -3.0267749693720005e-03 3.9428140627500970e-03 0.0000000000000000e+00  -5.8002208649789617e-03 4.1124744006092607e-03 0.0000000000000000e+00  -6.8816744672539074e-03 4.5660554345124281e-03 0.0000000000000000e+00  -2.5987033625407972e-02 5.2907813737431645e-03 0.0000000000000000e+00  -3.0804532546449152e-02 1.5191948579196115e-02 0.0000000000000000e+00  -3.4176692702402249e-02 2.3496623794050740e-02 0.0000000000000000e+00  -1.7629006434441118e-02 -1.1430683982589025e+01 0.0000000000000000e+00  -8.1739019728081213e-03 -1.2234984628039991e+01 0.0000000000000000e+00  -1.4908868596249536e-02 -1.1425120912148916e+01 0.0000000000000000e+00  0.0000000000000000e+00 0.0000000000000000e+00 0.0000000000000000e+00  0.0000000000000000e+00 0.0000000000000000e+00 0.0000000000000000e+00  -6.1413629522843343e-04 -1.1473141492202004e+01 0.0000000000000000e+00  1.3610860804186942e-02 -1.2271317120678006e+01 0.0000000000000000e+00  1.6944255753982191e-02 -1.1453065355675097e+01 0.0000000000000000e+00  4.1893785717536138e-02 6.9229495574431752e-03 0.0000000000000000e+00  4.7163354472558108e-02 -5.3952416101629959e-03 0.0000000000000000e+00  5.6935165187927787e-02 -2.5453601516216100e-02 0.0000000000000000e+00  1.9222676503281695e-02 2.6771758737716169e-02 0.0000000000000000e+00  5.2497143915062527e-03 2.7053589011525787e-02 0.0000000000000000e+00  -4.5257935602853096e-03 2.7815146762148725e-02 0.0000000000000000e+00  -1.2938925366073103e-02 2.5373279675327338e-02 0.0000000000000000e+00  -2.1124441059905102e-02 1.9549913392898216e-02 0.0000000000000000e+00  -3.6495169716670939e-02 2.6531238609458010e-03 0.0000000000000000e+00  -4.3844941532100508e-02 1.1884798067687387e-02 0.0000000000000000e+00  -5.1224681839450566e-02 1.6867723192472595e-02 0.0000000000000000e+00  -3.0459315097519479e-02 -1.1434153055052599e+01 0.0000000000000000e+00  -1.3559823365206582e-02 -1.2246197697895120e+01 0.0000000000000000e+00  -1.2282426142432811e-02 -1.1436908140899167e+01 0.0000000000000000e+00  0.0000000000000000e+00 0.0000000000000000e+00 0.0000000000000000e+00  0.0000000000000000e+00 0.0000000000000000e+00 0.0000000000000000e+00  3.5940166355353693e-03 -1.1496907753975574e+01 0.0000000000000000e+00  2.5190658646060033e-02 -1.2293999104954866e+01 0.0000000000000000e+00  3.6964610490509940e-02 -1.1477775833220765e+01 0.0000000000000000e+00  4.8342268118790492e-02 1.6595944958627831e-02 0.0000000000000000e+00  5.2314531282392190e-02 5.4464116549461867e-03 0.0000000000000000e+00  5.4418481517253217e-02 -8.2492360040112647e-04 0.0000000000000000e+00  4.5161508647693804e-02 5.5981801749376663e-02 0.0000000000000000e+00  2.0622205282146713e-02 5.9363658722984748e-02 0.0000000000000000e+00  -1.6182453216653841e-03 6.1244421166181437e-02 0.0000000000000000e+00  -2.2166343852725773e-02 5.9395307100219362e-02 0.0000000000000000e+00  -4.0296347800869145e-02 5.5674926807275607e-02 0.0000000000000000e+00  -5.0697251871118586e-02 -7.8029211277308623e-03 0.0000000000000000e+00  -5.4524635153777236e-02 3.7748279742838634e-03 0.0000000000000000e+00  -5.6635217635209574e-02 1.7066267098894985e-02 0.0000000000000000e+00  -4.9474896482031495e-02 -1.1460154007833589e+01 0.0000000000000000e+00  -2.1467750386746309e-02 -1.2270222017989127e+01 0.0000000000000000e+00  -1.3608903485624026e-02 -1.1463037415692504e+01 0.0000000000000000e+00  0.0000000000000000e+00 0.0000000000000000e+00 0.0000000000000000e+00  0.0000000000000000e+00 0.0000000000000000e+00 0.0000000000000000e+00  8.3865194014618363e-03 -1.1534804127671766e+01 0.0000000000000000e+00  3.6989391715993809e-02 -1.2331414924785982e+01 0.0000000000000000e+00  5.5674999901272074e-02 -1.1518702000151297e+01 0.0000000000000000e+00  6.2529923628963660e-02 2.1898389784640974e-02 0.0000000000000000e+00  6.6220513218106403e-02 1.2287424651993206e-02 0.0000000000000000e+00  6.8424371439792075e-02 2.3354796232641891e-03 0.0000000000000000e+00  5.9012900021081297e-02 1.1160459694545868e-01 0.0000000000000000e+00  2.7920605876437580e-02 1.1146165206291336e-01 0.0000000000000000e+00  -1.8862301228045652e-03 1.1226485453288459e-01 0.0000000000000000e+00  -3.1102509867975820e-02 1.1044023106257217e-01 0.0000000000000000e+00  -6.1152250909707558e-02 1.0857508190790992e-01 0.0000000000000000e+00  -6.5702436004286047e-02 -1.1503931797450601e-02 0.0000000000000000e+00  -6.9021803701370912e-02 -9.0429752729751650e-04 0.0000000000000000e+00  -7.0991442288833681e-02 8.5197493244082313e-03 0.0000000000000000e+00  -6.7395869556872975e-02 -1.1503691559701537e+01 0.0000000000000000e+00  -3.2145275067396256e-02 -1.2310681070500676e+01 0.0000000000000000e+00  -1.5314418871464780e-02 -1.1503809046416695e+01 0.0000000000000000e+00  0.0000000000000000e+00 0.0000000000000000e+00 0.0000000000000000e+00  0.0000000000000000e+00 0.0000000000000000e+00 0.0000000000000000e+00  1.2581018517175043e-02 -1.1585110036449976e+01 0.0000000000000000e+00  4.6574140396849449e-02 -1.2381535350830262e+01 0.0000000000000000e+00  6.9784028384870828e-02 -1.1573340098265517e+01 0.0000000000000000e+00  7.5057921582917853e-02 2.1928012581917369e-02 0.0000000000000000e+00  7.7784465011186632e-02 1.5567229588115966e-02 0.0000000000000000e+00  7.7772692957766773e-02 9.7793590729972710e-03 0.0000000000000000e+00  7.1755046837127509e-02 1.7771324018292592e-01 0.0000000000000000e+00  3.4242003338968721e-02 1.7588019732736979e-01 0.0000000000000000e+00  -2.2396695786378990e-03 1.7701964307316378e-01 0.0000000000000000e+00  -3.8305522491042659e-02 1.7624113639952191e-01 0.0000000000000000e+00  -7.5658941421997694e-02 1.7790903681610418e-01 0.0000000000000000e+00  -7.9613203008329123e-02 -1.0902078951584356e-02 0.0000000000000000e+00  -8.2298003527390126e-02 -4.2704401774194597e-03 0.0000000000000000e+00  -8.2291878340914795e-02 1.8996753126282694e-03 0.0000000000000000e+00  -8.2616465283577717e-02 -1.1562114321446325e+01 0.0000000000000000e+00  -4.3236222665786736e-02 -1.2363960998349562e+01 0.0000000000000000e+00  -1.8682859657620635e-02 -1.1556662667102822e+01 0.0000000000000000e+00  0.0000000000000000e+00 0.0000000000000000e+00 0.0000000000000000e+00  0.0000000000000000e+00 0.0000000000000000e+00 0.0000000000000000e+00  1.5225098012697121e-02 -1.1643321605969488e+01 0.0000000000000000e+00  5.1976888161933812e-02 -1.2439587009334939e+01 0.0000000000000000e+00  7.6695848288487023e-02 -1.1636281443188880e+01 0.0000000000000000e+00  8.1470110994614944e-02 1.8454890026734234e-02 0.0000000000000000e+00  8.3243302932151028e-02 1.7192920407529538e-02 0.0000000000000000e+00  8.2141956522239781e-02 1.6381657794741409e-02 0.0000000000000000e+00  7.6411287264691249e-02 2.5755380529588973e-01 0.0000000000000000e+00  3.6686892680845663e-02 2.5131439430568153e-01 0.0000000000000000e+00  -2.6409408112182432e-03 2.5124617022984469e-01 0.0000000000000000e+00  -4.1721740487370609e-02 2.5151638621267852e-01 0.0000000000000000e+00  -8.2810756086138373e-02 2.5764705115197511e-01 0.0000000000000000e+00  -8.7282262460232463e-02 -6.9352112635812924e-03 0.0000000000000000e+00  -8.8978369383017203e-02 -5.3347173205772896e-03 0.0000000000000000e+00  -8.7733354159966886e-02 -4.1317049808884485e-03 0.0000000000000000e+00  -9.0420375968330718e-02 -1.1629445473746088e+01 0.0000000000000000e+00  -5.1160767020190512e-02 -1.2425474247302096e+01 0.0000000000000000e+00  -2.2745458630743814e-02 -1.1617173743482395e+01 0.0000000000000000e+00  -3.7949155638119468e-11 -4.6499461389045430e-10 0.0000000000000000e+00  0.0000000000000000e+00 0.0000000000000000e+00 0.0000000000000000e+00  1.5756315000596773e-02 -1.1703404070926867e+01 0.0000000000000000e+00  5.2092245435523821e-02 -1.2499417354588600e+01 0.0000000000000000e+00  7.5066031586888030e-02 -1.1700731407428195e+01 0.0000000000000000e+00  7.9578767706630721e-02 1.2910823714046863e-02 0.0000000000000000e+00  8.0430024587257343e-02 1.7089375535100197e-02 0.0000000000000000e+00  7.8472701926362701e-02 2.1605056577598945e-02 0.0000000000000000e+00  7.2983057748022190e-02 3.3884269315475124e-01 0.0000000000000000e+00  3.5116335890689993e-02 3.2825389213217743e-01 0.0000000000000000e+00  -2.9269084337435517e-03 3.2720755912267396e-01 0.0000000000000000e+00  -4.0896789538458225e-02 3.2858391178612961e-01 0.0000000000000000e+00  -8.1441345455525338e-02 3.3931345791376516e-01 0.0000000000000000e+00  -8.6393314387220380e-02 -9.0851199385262268e-04 0.0000000000000000e+00  -8.7169351746154908e-02 -4.8266576282345727e-03 0.0000000000000000e+00  -8.5121021892027471e-02 -9.0877735717459149e-03 0.0000000000000000e+00  -8.9403196050496347e-02 -1.1698771545693722e+01 0.0000000000000000e+00  -5.3673417137239630e-02 -1.2488904990003288e+01 0.0000000000000000e+00  -2.5738287213054774e-02 -1.1679661302210135e+01 0.0000000000000000e+00  0.0000000000000000e+00 0.0000000000000000e+00 0.0000000000000000e+00  0.0000000000000000e+00 0.0000000000000000e+00 0.0000000000000000e+00  1.3994935182937981e-02 -1.1758844753213193e+01 0.0000000000000000e+00  4.6696058571018856e-02 -1.2554513959724780e+01 0.0000000000000000e+00  6.4856990940504830e-02 -1.1759639203910565e+01 0.0000000000000000e+00  6.8889193611490165e-02 6.3757632766728569e-03 0.0000000000000000e+00  6.8840110565337384e-02 1.5615272291801213e-02 0.0000000000000000e+00  6.6406581499964146e-02 2.5109817361172394e-02 0.0000000000000000e+00  6.1450457706026314e-02 4.1365609284374660e-01 0.0000000000000000e+00  2.9556154922614739e-02 3.9889168584764878e-01 0.0000000000000000e+00  -3.1457546812942959e-03 3.9682623976756931e-01 0.0000000000000000e+00  -3.5900577650798023e-02 3.9915852664090046e-01 0.0000000000000000e+00  -7.1547402117887321e-02 4.1418565308270927e-01 0.0000000000000000e+00  -7.6470666173374099e-02 6.0015764151453484e-03 0.0000000000000000e+00  -7.6368871992587573e-02 -3.0519557653455481e-03 0.0000000000000000e+00  -7.3856418190281659e-02 -1.2352479061022093e-02 0.0000000000000000e+00  -7.9488751190666743e-02 -1.1762706040242268e+01 0.0000000000000000e+00  -5.0068737765146899e-02 -1.2547518228172626e+01 0.0000000000000000e+00  -2.6418346511005646e-02 -1.1737728044943651e+01 0.0000000000000000e+00  0.0000000000000000e+00 0.0000000000000000e+00 0.0000000000000000e+00  0.0000000000000000e+00 0.0000000000000000e+00 0.0000000000000000e+00  1.0093954087359556e-02 -1.1803552895166899e+01 0.0000000000000000e+00  3.6313421844537987e-02 -1.2598841707162132e+01 0.0000000000000000e+00  4.7139766262319208e-02 -1.1806552315923701e+01 0.0000000000000000e+00  5.0313192278029682e-02 -1.9679113253172548e-04 0.0000000000000000e+00  4.9441188972840500e-02 1.3109048778142686e-02 0.0000000000000000e+00  4.6847726666942036e-02 2.6583609712429634e-02 0.0000000000000000e+00  4.3037030220683968e-02 4.7371495599212088e-01 0.0000000000000000e+00  2.0571712648034535e-02 4.5553172468658004e-01 0.0000000000000000e+00  -3.2952476404841482e-03 4.5261323524992242e-01 0.0000000000000000e+00  -2.7297002910962490e-02 4.5568476750691117e-01 0.0000000000000000e+00  -5.4296820430184890e-02 4.7422968532731369e-01 0.0000000000000000e+00  -5.8427382984787397e-02 1.2835521905850335e-02 0.0000000000000000e+00  -5.7526178821752635e-02 -3.5330229653288050e-04 0.0000000000000000e+00  -5.4879461310386832e-02 -1.3704255602282013e-02 0.0000000000000000e+00  -6.1759921578536839e-02 -1.1814538918306541e+01 0.0000000000000000e+00  -4.0735561624245478e-02 -1.2595166124805264e+01 0.0000000000000000e+00  -2.4330970848973104e-02 -1.1785269538949510e+01 0.0000000000000000e+00  0.0000000000000000e+00 0.0000000000000000e+00 0.0000000000000000e+00  0.0000000000000000e+00 0.0000000000000000e+00 0.0000000000000000e+00  4.4660677768427557e-03 -1.1832586736719218e+01 0.0000000000000000e+00  2.2054090882692497e-02 -1.2627528149344670e+01 0.0000000000000000e+00  2.3834165273027490e-02 -1.1836324834849767e+01 0.0000000000000000e+00  2.5835300169510623e-02 -6.0318506972691756e-03 0.0000000000000000e+00  2.4256939022599618e-02 9.9004759826412173e-03 0.0000000000000000e+00  2.1780325807339389e-02 2.5917864264470934e-02 0.0000000000000000e+00  1.9707736147500838e-02 5.1257247103881587e-01 0.0000000000000000e+00  9.1316546615880841e-03 4.9210199514530589e-01 0.0000000000000000e+00  -3.3757987191725745e-03 4.8859593721691430e-01 0.0000000000000000e+00  -1.6054882363356830e-02 4.9211505715904297e-01 0.0000000000000000e+00  -3.1617985461606338e-02 5.1300891724972342e-01 0.0000000000000000e+00  -3.4250517624573991e-02 1.8814584495285419e-02 0.0000000000000000e+00  -3.2664953025323823e-02 2.9291619681478471e-03 0.0000000000000000e+00  -3.0160367716451638e-02 -1.3032117