<?xml version="1.0"?>
<VTKFile type="UnstructuredGrid"  version="0.1"  >
<UnstructuredGrid>
<Piece  NumberOfPoints="589" NumberOfCells="1080">
<Points>
<DataArray  type="Float64"  NumberOfComponents="3"  format="ascii">-9 0 0  -8 0 0  -7 0 0  -6 0 0  -5 0 0  -4 0 0  -3 0 0  -2 0 0  -1 0 0  0 0 0  1 0 0  2 0 0  3 0 0  4 0 0  5 0 0  6 0 0  7 0 0  8 0 0  9 0 0  -9 2 0  -8.000001638846918 1.999998031650405 0  -7.000003471055203 1.999996241941553 0  -6.000005861942576 1.999994768208851 0  -5.000009572351065 1.999993645625979 0  -4.000006389538045 1.999995426150767 0  -3.000002964820988 1.999996776396669 0  -2.00000106578841 1.999997895848033 0  -1.000000274323485 1.999998769558626 0  -1.704272155127018e-07 1.99999915091557 0  0.9999998761991453 1.999998904257359 0  2.000000470720658 1.99999808746896 0  3.000002035285478 1.999997050442128 0  4.000004727418692 1.99999586866347 0  5.000008482364382 1.9999952105668 0  6.00000514503142 1.999995639261647 0  7.000003030805165 1.999996728349912 0  8.000001428711164 1.999998254177131 0  9 2 0  -9 4 0  -8.000002504240651 3.999995348757806 0  -7.000004707390103 3.999991219994553 0  -6.000006445790195 3.999988131827607 0  -5.000007778631896 3.999986593353454 0  -4.000003530102739 3.999987258163674 0  -3.000000437793799 3.999990535004966 0  -1.999999098890978 3.99999478857299 0  -0.9999992834865774 3.999998168812609 0  -3.246095249797127e-07 3.999999543336826 0  0.9999985881123747 3.999998535318488 0  1.999998255531913 3.99999572555233 0  2.999999467286706 3.999991887429352 0  4.000002427182718 3.999988019758693 0  5.000006456869583 3.999986635718007 0  6.00000539761676 3.999988636962119 0  7.000004013070089 3.999991709764443 0  8.000002163880032 3.999995628392609 0  9 4 0  -9 6 0  -8.000004573979771 5.999990576029099 0  -7.000007802725063 5.999982035733193 0  -6.000008651883578 5.999975296736985 0  -5.000006811876909 5.999971258360709 0  -3.99999918283161 5.999975888871529 0  -2.999995371886788 5.99998560460546 0  -1.999995950575261 5.999995787062398 0  -0.9999984089843773 6.000001489928303 0  -9.153528693594123e-07 6.000002700691903 0  0.9999969180029932 6.000000875014681 0  1.999995459897032 5.999995836135734 0  2.999995315983944 5.999987389455198 0  3.999997567085518 5.999978651330377 0  5.000004087271665 5.99997440743538 0  6.000006951386459 5.999977348489735 0  7.00000685389452 5.999983307949008 0  8.000004157781243 5.999991190764232 0  9 6 0  -9 8 0  -8.000012024026201 7.999982268932764 0  -7.000020416304004 7.999965646624769 0  -6.000021614620223 7.999951659504458 0  -5.000012461880251 7.999942861850759 0  -3.99999855255858 7.999964004999768 0  -3.000000341840952 7.999988867161154 0  -2.000004759374077 8.000001141495124 0  -1.000004589808642 8.000002781798228 0  -1.03923051548408e-06 8.000003269964143 0  1.000001807209448 8.000004348365442 0  2.000001443905408 7.999999273370347 0  2.999996326466067 7.999990449925303 0  3.999995271126743 7.999969362500813 0  5.00000906715768 7.999945747755083 0  6.000020351371876 7.999953986852494 0  7.000020088951803 7.999967213065639 0  8.000011998126515 7.999983047733213 0  9 8 0  -9 10 0  -8.000033999538946 9.999969528057241 0  -7.000061804153455 9.999938718687581 0  -6.000075980005644 9.999907267561868 0  -5.000066100622132 9.999874943764395 0  -4.0000446716683 9.999941688876712 0  -3.000046804637256 9.999999331843751 0  -2.000036929912137 9.999990314590116 0  -1.000017524841892 9.999987423615069 0  -2.971634524489687e-06 9.99998673210812 0  1.000011453838209 9.999986718898176 0  2.000030233068766 9.999986140673007 0  3.000047542172469 10.00000553143291 0  4.000046868074865 9.999951423136444 0  5.000070712907465 9.999880642031169 0  6.000079934785636 9.999910679190641 0  7.000064635666073 9.999940685756828 0  8.00003546635762 9.999970435213838 0  9 10 0  -9 12 0  -8.000080747943784 11.99995813944184 0  -7.00015769603892 11.99991436202094 0  -6.000226544724539 11.99986637357615 0  -5.000281992781367 11.99981097182275 0  -4.000271554126688 11.99993020036961 0  -3.000280292543783 12.00004826351162 0  -2.000192277726436 12.00003387462986 0  -1.000095833296429 12.00002604191907 0  3.769647401671995e-06 12.00002435794976 0  1.000104445554558 12.00002903978448 0  2.000204547658258 12.00004153706594 0  3.000300425675189 12.00006551840861 0  4.000291593139559 11.99993922364976 0  5.000298018052911 11.99981200090693 0  6.000237587406758 11.99986749936121 0  7.00016465563552 11.9999151902969 0  8.000084118083501 11.99995856352203 0  9 12 0  -9 14 0  -8.000142682067169 13.99995442104778 0  -7.00028596385131 13.99990685421503 0  -6.000430675056206 13.99985513972804 0  -5.000578251144068 13.9997967855655 0  -4.000580013770966 13.99993316681302 0  -3.000579745270561 14.00007137095624 0  -2.000381369691965 14.00005121538165 0  -1.000186787339068 14.00004006986252 0  6.22170851528627e-06 14.0000365247525 0  1.000199751500603 14.00004010399522 0  2.000395795107683 14.00005100469539 0  3.000596107539616 14.00006983848982 0  4.000598940063911 13.99993344976029 0  5.000599443690113 13.99979800841173 0  6.000445211892065 13.99985556030824 0  7.000295079573936 13.99990697205121 0  8.000147079911327 13.99995444230629 0  9 14 0  -9 16 0  -8.00020219907401 15.99995865590035 0  -7.000408484084931 15.99991594069631 0  -6.00062329789915 15.99987047006038 0  -5.00085183128602 15.99982086262728 0  -4.000859964967376 15.99993418235075 0  -3.000851551663421 16.00004683618414 0  -2.000555335646868 16.00003253041078 0  -1.000271468985817 16.00002370775227 0  6.591037073637669e-06 16.00002020453725 0  1.000285023127634 16.00002189256467 0  2.000570011918024 16.00002875009181 0  3.000868149143496 16.00004082953725 0  4.000877565391702 15.99992917385934 0  5.000869963960537 15.99981742562872 0  6.000636384905322 15.99986818839739 0  7.000416940429036 15.99991452441601 0  8.000206343324859 15.99995797378461 0  9 16 0  -9 18 0  -8.000245351896623 17.99996837547164 0  -7.000496856879999 17.99993605046572 0  -6.000760988709991 17.99990235007629 0  -5.00104486761818 17.99986665826518 0  -4.001056741058583 17.99993371163018 0  -3.001044792560617 18.00000067333328 0  -2.000679962370561 17.99999192368446 0  -1.000332951483815 17.99998607926653 0  5.470707110106643e-06 17.99998313064631 0  1.000344092141379 17.99998301412479 0  2.000691688482163 17.99998561819711 0  3.001057447109983 17.99999076458088 0  4.001070061361244 17.9999258699281 0  5.001058509979484 17.99986119499298 0  6.000770960605423 17.9998985271918 0  7.00050337471417 17.99993362566341 0  8.000248570410598 17.99996719861941 0  9 18 0  -9 20 0  -8.000263875386404 19.99998089644528 0  -7.000534688871324 19.9999616618241 0  -6.000819636271027 19.99994219625991 0  -5.001126428737136 19.99992246359711 0  -4.001139633531774 19.999932841395 0  -3.001126273544788 19.99994314152868 0  -2.000733375370481 19.99993970320318 0  -1.00036010907082 19.99993687509516 0  3.552023505065737e-06 19.99993473596174 0  1.000367288690819 19.99993326057577 0  2.000740775168764 19.99993232355071 0  3.00113401977096 19.99993169251568 0  4.001147574654462 19.99992393447464 0  5.001134502281888 19.99991633299175 0  6.000825623812971 19.99993780136878 0  7.000538645874311 19.99995882909448 0  8.000265842907092 19.99997950921734 0  8.999999999997575 20.0000000000042 0  -9 22 0  -8.000254631314863 21.99999394110586 0  -7.000515952980336 21.99998819646906 0  -6.000790849786863 21.99998311028005 0  -5.001086593673843 21.99997908701162 0  -4.001099242271157 21.99993155384233 0  -3.001086494138545 21.9998839570301 0  -2.000708323323147 21.99988504337066 0  -1.000348875382335 21.99988491692219 0  1.330971827876842e-06 21.99988368821241 0  1.000351515311047 21.99988135522658 0  2.000710891542178 21.99987780593846 0  3.001088924083598 21.99987281691526 0  4.001101534607363 21.99992294492987 0  5.001088835098303 21.99997318141317 0  6.000792630302152 21.99997883735959 0  7.000517184357602 21.99998542221833 0  8.000255259676223 21.99999257629665 0  9 22 0  -9 24 0  -8.000218610895557 24.00000572848204 0  -7.000442884631078 24.00001209693306 0  -6.000678621940964 24.00001977197008 0  -5.00093189651849 24.00002947354963 0  -4.000942611475269 23.99993002413021 0  -3.000931932117742 23.99983053821892 0  -2.000608439157975 23.99983523140556 0  -1.000300702795014 23.99983736472377 0  -8.005677593318202e-07 23.99983705448803 0  1.000299004856485 23.99983431178695 0  2.000606445537738 23.99982904349676 0  3.000929428203694 23.99982105225252 0  4.000939717073679 23.99992273929903 0  5.000928835495788 24.00002451235503 0  6.000676550209514 24.00001615692549 0  7.000441607384308 24.00000973788523 0  8.000218002803788 24.00000456436191 0  9 24 0  -9 26 0  -8.000159922023892 26.0000149560625 0  -7.000323928749244 26.00003077094324 0  -6.000496193092534 26.00004832709363 0  -5.00068106090334 26.00006855412609 0  -4.000688874662371 25.99992840454612 0  -3.00068129750308 25.99978824086412 0  -2.000445585171682 25.99979565193973 0  -1.000221219357846 25.99979958099779 0  -2.542500565791063e-06 25.99980014481555 0  1.000215984065103 25.99979736470894 0  2.000439893757695 25.99979116654258 0  3.000674828500771 25.99978138128767 0  4.000681842025784 25.99992316192405 0  5.000673784376197 26.00006500558034 0  6.000491050131123 26.00004573069404 0  7.000320647153797 26.00002907141465 0  8.000158324732421 26.00001411580381 0  9 26 0  -9 28 0  -8.000084875748588 28.00002074856467 0  -7.000171907707083 28.00004247990604 0  -6.000263296111917 28.00006619847584 0  -5.000361325440124 28.0000929518067 0  -4.000365629500412 27.99992682846656 0  -3.000361814530887 27.99976071257109 0  -2.000237400196392 27.99976999501296 0  -1.000119005148497 27.99977525256217 0  -3.680880013337065e-06 27.99977660504567 0  1.000111460681363 27.99977408388661 0  2.000229302324189 27.9997676317607 0  3.000352776730862 27.9997571032833 0  4.000355927138355 27.9999240806266 0  5.000351336550414 28.00009110273077 0  6.00025617371224 28.00006484231145 0  7.000167332670585 28.00004159062184 0  8.00008263962
[...]
<PointData  Vectors="f_44-0"> 
<DataArray  type="Float64"  Name="f_44-0"  NumberOfComponents="3" format="ascii">0.0000000000000000e+00 0.0000000000000000e+00 0.0000000000000000e+00  -7.6770891625777917e-09 -3.9021091011784492e-01 0.0000000000000000e+00  2.7705635199807855e-08 -3.8370842807764199e-01 0.0000000000000000e+00  3.6265344246413311e-08 -3.1343517057318487e-01 0.0000000000000000e+00  0.0000000000000000e+00 0.0000000000000000e+00 0.0000000000000000e+00  0.0000000000000000e+00 0.0000000000000000e+00 0.0000000000000000e+00  0.0000000000000000e+00 0.0000000000000000e+00 0.0000000000000000e+00  0.0000000000000000e+00 0.0000000000000000e+00 0.0000000000000000e+00  0.0000000000000000e+00 0.0000000000000000e+00 0.0000000000000000e+00  0.0000000000000000e+00 0.0000000000000000e+00 0.0000000000000000e+00  0.0000000000000000e+00 0.0000000000000000e+00 0.0000000000000000e+00  0.0000000000000000e+00 0.0000000000000000e+00 0.0000000000000000e+00  0.0000000000000000e+00 0.0000000000000000e+00 0.0000000000000000e+00  0.0000000000000000e+00 0.0000000000000000e+00 0.0000000000000000e+00  0.0000000000000000e+00 0.0000000000000000e+00 0.0000000000000000e+00  -7.4768906227664602e-09 -3.9141249337364159e-01 0.0000000000000000e+00  2.8107210602240150e-08 -3.8474370628519622e-01 0.0000000000000000e+00  3.5557249819689852e-08 -3.1389280860995261e-01 0.0000000000000000e+00  0.0000000000000000e+00 0.0000000000000000e+00 0.0000000000000000e+00  0.0000000000000000e+00 0.0000000000000000e+00 0.0000000000000000e+00  1.9128570447986097e-04 -3.4398158405474832e-01 0.0000000000000000e+00  1.1924231559993746e-03 -3.8287450826694680e-01 0.0000000000000000e+00  3.0271535188810829e-03 -3.4487480777106977e-01 0.0000000000000000e+00  2.0445335115816139e-04 -2.0715880655886769e-04 0.0000000000000000e+00  2.8632320577434738e-04 -2.9329506044603517e-04 0.0000000000000000e+00  1.8887806155594650e-04 -2.0815006647301144e-04 0.0000000000000000e+00  1.7088642389342568e-04 -6.2571403262943608e-05 0.0000000000000000e+00  1.1056533488820935e-04 1.9107418960938725e-05 0.0000000000000000e+00  4.1734490685736486e-05 1.6810529170453922e-05 0.0000000000000000e+00  -2.9759623889839721e-05 -5.1849219386971546e-05 0.0000000000000000e+00  -7.8438472689735888e-05 -1.5566900491776738e-04 0.0000000000000000e+00  -1.1737579481305526e-04 -3.0570881457618268e-04 0.0000000000000000e+00  -1.5028089265949808e-04 -3.6045939805087740e-04 0.0000000000000000e+00  -2.2561229205621014e-04 -6.0320202488683343e-04 0.0000000000000000e+00  3.1493191612960497e-04 -3.4491361471856480e-01 0.0000000000000000e+00  1.3427252188196181e-03 -3.8387921948811493e-01 0.0000000000000000e+00  3.1887205838159569e-03 -3.4573177815666817e-01 0.0000000000000000e+00  0.0000000000000000e+00 0.0000000000000000e+00 0.0000000000000000e+00  0.0000000000000000e+00 0.0000000000000000e+00 0.0000000000000000e+00  1.2239047117775454e-03 -3.4509200862872247e-01 0.0000000000000000e+00  -1.1982797607964279e-04 -3.8033336787158267e-01 0.0000000000000000e+00  1.3781288220392277e-03 -3.4585503911049026e-01 0.0000000000000000e+00  -3.2897266484737471e-04 -6.0080913889919813e-04 0.0000000000000000e+00  -2.6919136469358350e-05 -2.5112677397589055e-04 0.0000000000000000e+00  7.9617204505030850e-05 1.0890471211774139e-04 0.0000000000000000e+00  8.5508687546070528e-05 2.1550229633756507e-04 0.0000000000000000e+00  -1.4482317775164285e-05 1.4043145671196086e-04 0.0000000000000000e+00  -9.1971421704100639e-05 2.9612431595889619e-05 0.0000000000000000e+00  -1.2426451958779465e-04 -2.2926415009394160e-05 0.0000000000000000e+00  -4.6561089955671638e-05 -1.8305039577553702e-04 0.0000000000000000e+00  -2.1658411836765081e-05 -3.7303896277821275e-04 0.0000000000000000e+00  -1.4979678597776829e-05 -3.4965196709866729e-04 0.0000000000000000e+00  2.2512658420182492e-05 -1.9460681803076498e-04 0.0000000000000000e+00  1.4029850184440584e-03 -3.4599524308060509e-01 0.0000000000000000e+00  6.0613088918290839e-05 -3.8120892403664403e-01 0.0000000000000000e+00  1.5138134035409792e-03 -3.4662718082573568e-01 0.0000000000000000e+00  0.0000000000000000e+00 0.0000000000000000e+00 0.0000000000000000e+00  0.0000000000000000e+00 0.0000000000000000e+00 0.0000000000000000e+00  1.1381802570993404e-03 -3.4540195057625478e-01 0.0000000000000000e+00  -2.6274861393454452e-04 -3.8031452136844213e-01 0.0000000000000000e+00  1.0267767588636148e-03 -3.4584643026045297e-01 0.0000000000000000e+00  -5.5165971505022598e-04 -3.5080281279672510e-04 0.0000000000000000e+00  -1.4508168875823879e-04 2.0534277275484412e-04 0.0000000000000000e+00  -4.9058334387222078e-05 3.2948350976524937e-04 0.0000000000000000e+00  -2.3782329503744214e-04 -1.1438497397536052e-04 0.0000000000000000e+00  -1.7938898628221592e-04 -2.8111215957149786e-04 0.0000000000000000e+00  -5.6781452276326427e-05 -4.2239936662418871e-05 0.0000000000000000e+00  2.3548814148409502e-05 3.7324542925402346e-05 0.0000000000000000e+00  -7.4180775302962128e-05 -6.5238903283844466e-05 0.0000000000000000e+00  -1.6280106593017500e-05 -2.2925471553602217e-04 0.0000000000000000e+00  1.6502069749043665e-04 -8.2124972612631156e-04 0.0000000000000000e+00  9.3716724801980785e-05 -1.3216910899067939e-03 0.0000000000000000e+00  1.7326010898654387e-03 -3.4630510526336572e-01 0.0000000000000000e+00  2.9401646189979209e-04 -3.8093054637639634e-01 0.0000000000000000e+00  1.4064318018954013e-03 -3.4609784800309190e-01 0.0000000000000000e+00  0.0000000000000000e+00 0.0000000000000000e+00 0.0000000000000000e+00  0.0000000000000000e+00 0.0000000000000000e+00 0.0000000000000000e+00  7.2273417724912905e-04 -3.4481536444906641e-01 0.0000000000000000e+00  -9.7815199709093891e-04 -3.8014144703844832e-01 0.0000000000000000e+00  -1.5794540796505426e-04 -3.4584239216351259e-01 0.0000000000000000e+00  -2.1889098083805467e-03 -1.7035827612725957e-03 0.0000000000000000e+00  -2.0638731111086036e-03 -4.0051568595613054e-04 0.0000000000000000e+00  -7.2551643375804744e-04 -9.4011873168363522e-04 0.0000000000000000e+00  -7.8481961571850816e-04 -1.3529800390550549e-03 0.0000000000000000e+00  -3.6453395580392951e-05 -6.1352840842140955e-04 0.0000000000000000e+00  2.9420714773752555e-04 -4.8281506060821820e-04 0.0000000000000000e+00  7.8661397049456484e-04 -1.1523615781405009e-03 0.0000000000000000e+00  7.6989287531031706e-04 -1.5518675302017475e-04 0.0000000000000000e+00  2.5694829072486435e-03 -1.0171159380249740e-03 0.0000000000000000e+00  2.7103223659355070e-03 -2.9270165924081730e-03 0.0000000000000000e+00  1.9815980199748232e-03 -3.3858572241141473e-03 0.0000000000000000e+00  2.4529734369189440e-03 -3.4606526325365561e-01 0.0000000000000000e+00  9.2049742784811018e-04 -3.8027186599640794e-01 0.0000000000000000e+00  1.7086991654213348e-03 -3.4530197306997762e-01 0.0000000000000000e+00  0.0000000000000000e+00 0.0000000000000000e+00 0.0000000000000000e+00  0.0000000000000000e+00 0.0000000000000000e+00 0.0000000000000000e+00  -1.5824102152518611e-04 -3.4279591772637086e-01 0.0000000000000000e+00  -2.8584173072105446e-03 -3.7843426214193393e-01 0.0000000000000000e+00  -2.9121077471961840e-03 -3.4544004406939638e-01 0.0000000000000000e+00  -9.5388358691594517e-03 -3.4011873790437420e-04 0.0000000000000000e+00  -7.1969075613362863e-03 5.9940051414596900e-04 0.0000000000000000e+00  -4.5749858809011664e-03 1.4199261798686382e-03 0.0000000000000000e+00  -7.9322554224813989e-04 -2.8921756744490273e-03 0.0000000000000000e+00  -1.9498268687739460e-04 -1.2820407643268968e-03 0.0000000000000000e+00  6.5813310760216414e-04 -9.8527577880803724e-04 0.0000000000000000e+00  1.4516577727165518e-03 -1.0380142198481827e-03 0.0000000000000000e+00  1.9130116792656076e-03 -1.1719393208931151e-03 0.0000000000000000e+00  6.4270520182514541e-03 -1.1047800354979777e-03 0.0000000000000000e+00  7.5225031627834610e-03 -3.8252217817028610e-03 0.0000000000000000e+00  8.6130948036267346e-03 -6.4233900067821514e-03 0.0000000000000000e+00  4.9212903183449026e-03 -3.4507520357017829e-01 0.0000000000000000e+00  2.4957562074701088e-03 -3.7846784347267282e-01 0.0000000000000000e+00  2.4244788916342607e-03 -3.4343310677131828e-01 0.0000000000000000e+00  0.0000000000000000e+00 0.0000000000000000e+00 0.0000000000000000e+00  0.0000000000000000e+00 0.0000000000000000e+00 0.0000000000000000e+00  -1.4928125394352554e-03 -3.3835418609457307e-01 0.0000000000000000e+00  -5.7164123193524947e-03 -3.7412362211989286e-01 0.0000000000000000e+00  -6.9420420054107021e-03 -3.4254831439013289e-01 0.0000000000000000e+00  -1.1712543482678599e-02 -3.4718300261587188e-03 0.0000000000000000e+00  -1.2837355400571088e-02 5.3868645604998762e-04 0.0000000000000000e+00  -1.5109772489086680e-02 6.2875747756839682e-03 0.0000000000000000e+00  -7.8144763548923368e-03 -7.8871971091131667e-03 0.0000000000000000e+00  -3.2823083449608007e-03 -9.3830459762332240e-03 0.0000000000000000e+00  7.7166501262102146e-04 -9.3219138795813550e-03 0.0000000000000000e+00  4.6098050344440984e-03 -8.5062261455803589e-03 0.0000000000000000e+00  7.6001069812661141e-03 -6.0220010614457867e-03 0.0000000000000000e+00  1.0831404010458240e-02 1.8001918237930668e-04 0.0000000000000000e+00  1.2475447930487720e-02 -3.1027632206752334e-03 0.0000000000000000e+00  1.4261936887217292e-02 -5.3686472860439201e-03 0.0000000000000000e+00  9.5838713930283311e-03 -3.4218654058251863e-01 0.0000000000000000e+00  5.2668494231666706e-03 -3.7431816131238488e-01 0.0000000000000000e+00  3.6528324679834813e-03 -3.3945658620730890e-01 0.0000000000000000e+00  0.0000000000000000e+00 0.0000000000000000e+00 0.0000000000000000e+00  0.0000000000000000e+00 0.0000000000000000e+00 0.0000000000000000e+00  -3.1917965944474672e-03 -3.3059037883585035e-01 0.0000000000000000e+00  -9.4498269326155123e-03 -3.6601602619243584e-01 0.0000000000000000e+00  -1.2965191955633807e-02 -3.3570745730251855e-01 0.0000000000000000e+00  -1.6315450215842981e-02 -5.9019952531443780e-03 0.0000000000000000e+00  -1.7216557837950897e-02 -1.9086687553049680e-03 0.0000000000000000e+00  -1.7705627026447446e-02 9.6659822162098517e-04 0.0000000000000000e+00  -1.2585821087372698e-02 -1.6635691361818701e-02 0.0000000000000000e+00  -5.9276890833557527e-03 -1.9994395669957327e-02 0.0000000000000000e+00  6.8412007969741791e-04 -2.0506759459176748e-02 0.0000000000000000e+00  7.1911131304244402e-03 -1.9520673223533572e-02 0.0000000000000000e+00  1.3390067163734150e-02 -1.5012171092374540e-02 0.0000000000000000e+00  1.6957451045664592e-02 2.7256918264361154e-03 0.0000000000000000e+00  1.7845061516545104e-02 -1.2625279373759243e-03 0.0000000000000000e+00  1.8320029621967958e-02 -5.6428095023195422e-03 0.0000000000000000e+00  1.5545079749570709e-02 -3.3489003420311286e-01 0.0000000000000000e+00  9.0336285505490214e-03 -3.6658631341139253e-01 0.0000000000000000e+00  5.2819732851335510e-03 -3.3235230874481941e-01 0.0000000000000000e+00  0.0000000000000000e+00 0.0000000000000000e+00 0.0000000000000000e+00  0.0000000000000000e+00 0.0000000000000000e+00 0.0000000000000000e+00  -4.8800888338465685e-03 -3.1919749504473571e-01 0.0000000000000000e+00  -1.3147533817868789e-02 -3.5365573422499885e-01 0.0000000000000000e+00  -1.8920702988855974e-02 -3.2434422537533619e-01 0.0000000000000000e+00  -2.2742906377666950e-02 -6.8505345517602262e-03 0.0000000000000000e+00  -2.3617249549313206e-02 -3.3683502139539097e-03 0.0000000000000000e+00  -2.3999052851857935e-02 1.8416717527580288e-04 0.0000000000000000e+00  -1.7870858864564642e-02 -3.1822176834637450e-02 0.0000000000000000e+00  -8.7073604518187429e-03 -3.5555030786272535e-02 0.0000000000000000e+00  5.8320770025656798e-04 -3.6359694255190360e-02 0.0000000000000000e+00  9.8248721451353223e-03 -3.5485026894723631e-02 0.0000000000000000e+00  1.8980589074488241e-02 -2.9542933517473106e-02 0.0000000000000000e+00  2.3204555144182914e-02 3.3112727143754929e-03 0.0000000000000000e+00  2.4012921003719996e-02 -2.5619012456138432e-04 0.0000000000000000e+00  2.4354390439984868e-02 -3.5403941157540839e-03 0.0000000000000000e+00  2.1299163550972167e-02 -3.2315872220333736e-01 0.0000000000000000e+00  1.2815209992503591e-02 -3.5451835551335742e-01 0.0000000000000000e+00  6.9330080437056624e-03 -3.2158946014613754e-01 0.0000000000000000e+00  0.0000000000000000e+00 0.0000000000000000e+00 0.0000000000000000e+00  0.0000000000000000e+00 0.0000000000000000e+00 0.0000000000000000e+00  -6.1687482578753608e-03 -3.0469162735773409e-01 0.0000000000000000e+00  -1.5941135371305207e-02 -3.3760500427787438e-01 0.0000000000000000e+00  -2.3475118291225623e-02 -3.0905111403132079e-01 0.0000000000000000e+00  -2.8114838757185741e-02 -6.3043905576483346e-03 0.0000000000000000e+00  -2.8803426919671103e-02 -4.0022922829428325e-03 0.0000000000000000e+00  -2.8635580365483422e-02 -1.8301881090060385e-03 0.0000000000000000e+00  -2.2094273683376704e-02 -5.1474903493061774e-02 0.0000000000000000e+00  -1.0960031263676926e-02 -5.6114475948506541e-02 0.0000000000000000e+00  3.9563043409705323e-04 -5.6810611146126580e-02 0.0000000000000000e+00  1.1720170489493942e-02 -5.6125490336521061e-02 0.0000000000000000e+00  2.3096929969893293e-02 -4.8892831654011745e-02 0.0000000000000000e+00  2.8502404294273510e-02 2.6479397206700724e-03 0.0000000000000000e+00  2.9199678329519911e-02 4.3597557470042691e-04 0.0000000000000000e+00  2.9045037926406947e-02 -1.6704890598062540e-03 0.0000000000000000e+00  2.5775250450504116e-02 -3.0742834734983127e-01 0.0000000000000000e+00  1.5746908737793400e-02 -3.3860515963789145e-01 0.0000000000000000e+00  8.2118606107731244e-03 -3.0751429404276709e-01 0.0000000000000000e+00  0.0000000000000000e+00 0.0000000000000000e+00 0.0000000000000000e+00  0.0000000000000000e+00 0.0000000000000000e+00 0.0000000000000000e+00  -6.7805982731625096e-03 -2.8828847066707380e-01 0.0000000000000000e+00  -1.7224328217124222e-02 -3.1924214737597562e-01 0.0000000000000000e+00  -2.5656980157609519e-02 -2.9124745719524225e-01 0.0000000000000000e+00  -3.0948353153878991e-02 -4.8189953233114952e-03 0.0000000000000000e+00  -3.1448786510825062e-02 -4.2688171222470322e-03 0.0000000000000000e+00  -3.1020241008590771e-02 -3.8144225045340370e-03 0.0000000000000000e+00  -2.4085181945956987e-02 -7.4132982008646597e-02 0.0000000000000000e+00  -1.2141517075008733e-02 -7.9731728773150393e-02 0.0000000000000000e+00  1.7896143904240968e-04 -8.0244078518872594e-02 0.0000000000000000e+00  1.2475710474174038e-02 -7.9772575525415862e-02 0.0000000000000000e+00  2.4977921858924678e-02 -7.1324328141286725e-02 0.0000000000000000e+00  3.1233367330136475e-02 1.0928326163723650e-03 0.0000000000000000e+00  3.1727623265883562e-02 6.1473516998629624e-04 0.0000000000000000e+00  3.1279222929268061e-02 2.2216955874173464e-04 0.0000000000000000e+00  2.7812016343694661e-02 -2.8934382097163241e-01 0.0000000000000000e+00  1.7148078363187109e-02 -3.2021165445518279e-01 0.0000000000000000e+00  8.8110320657676221e-03 -2.9124624531705151e-01 0.0000000000000000e+00  -8.1859305593576621e-11 1.6112225413822555e-10 0.0000000000000000e+00  0.0000000000000000e+00 0.0000000000000000e+00 0.0000000000000000e+00  -6.5790494040060578e-03 -2.7162593439418720e-01 0.0000000000000000e+00  -1.6707683799527712e-02 -3.0042921440178871e-01 0.0000000000000000e+00  -2.5010156371571220e-02 -2.7281525706114118e-01 0.0000000000000000e+00  -3.0517697116313455e-02 -2.8488433604512866e-03 0.0000000000000000e+00  -3.0827653672793304e-02 -4.1760449084949636e-03 0.0000000000000000e+00  -3.0224902827237318e-02 -5.5707242612303386e-03 0.0000000000000000e+00  -2.3501557651262626e-02 -9.7257017325049058e-02 0.0000000000000000e+00  -1.2018447544354469e-02 -1.0400488084188378e-01 0.0000000000000000e+00  -4.0248425594644879e-05 -1.0429383986226141e-01 0.0000000000000000e+00  1.1928419617810123e-02 -1.0404057415046150e-01 0.0000000000000000e+00  2.4244934370735164e-02 -9.4516993132546634e-02 0.0000000000000000e+00  3.0673327853978017e-02 -9.3463736292219110e-04 0.0000000000000000e+00  3.0968953312604238e-02 4.6828096961695732e-04 0.0000000000000000e+00  3.0356413494788181e-02 1.9409297071163716e-03 0.0000000000000000e+00  2.7016685673334265e-02 -2.7086019593607114e-01 0.0000000000000000e+00  1.6725797702807341e-02 -3.0127179447171482e-01 0.0000000000000000e+00  8.5891088554420278e-03 -2.7441925962105557e-01 0.0000000000000000e+00  0.0000000000000000e+00 0.0000000000000000e+00 0.0000000000000000e+00  0.0000000000000000e+00 0.0000000000000000e+00 0.0000000000000000e+00  -5.5595854438176039e-03 -2.5646869208716838e-01 0.0000000000000000e+00  -1.4393634483275380e-02 -2.8317560494268085e-01 0.0000000000000000e+00  -2.1536039592352563e-02 -2.5575907284205152e-01 0.0000000000000000e+00  -2.6698831169614242e-02 -7.4321273746425973e-04 0.0000000000000000e+00  -2.6811561032959595e-02 -3.8201073928729999e-03 0.0000000000000000e+00  -2.6143415758113270e-02 -6.9457479156298935e-03 0.0000000000000000e+00  -2.0323042319372819e-02 -1.1834588146932919e-01 0.0000000000000000e+00  -1.0575144595578501e-02 -1.2631544428599653e-01 0.0000000000000000e+00  -2.3426279695566669e-04 -1.2639498391133042e-01 0.0000000000000000e+00  1.0108837404722947e-02 -1.2633899507671673e-01 0.0000000000000000e+00  2.0925368217191046e-02 -1.1597088247253000e-01 0.0000000000000000e+00  2.6728635740137657e-02 -3.0720099646423596e-03 0.0000000000000000e+00  2.6821316998573815e-02 7.2730100454571178e-05 0.0000000000000000e+00  2.6139924814444854e-02 3.2646247088374647e-03 0.0000000000000000e+00  2.3408562920535909e-02 -2.5400505044787797e-01 0.0000000000000000e+00  1.4486400951504818e-02 -2.8383446978885685e-01 0.0000000000000000e+00  7.5470643997832213e-03 -2.5882671785782951e-01 0.0000000000000000e+00  0.0000000000000000e+00 0.0000000000000000e+00 0.0000000000000000e+00  0.0000000000000000e+00 0.0000000000000000e+00 0.0000000000000000e+00  -3.8270884264818132e-03 -2.4445007357803530e-01 0.0000000000000000e+00  -1.0523063305319966e-02 -2.6934934696891394e-01 0.0000000000000000e+00  -1.5605777766297676e-02 -2.4193405248147049e-01 0.0000000000000000e+00  -1.9871482950345035e-02 1.2068759084718863e-03 0.0000000000000000e+00  -1.9790248484761845e-02 -3.2801032633928027e-03 0.0000000000000000e+00  -1.9140690394317931e-02 -7.7981231931440022e-03 0.0000000000000000e+00  -1.4890989645743776e-02 -1.3511103949593040e-01 0.0000000000000000e+00  -7.9686819352447185e-03 -1.4424172604231558e-01 0.0000000000000000e+00  -3.8519688407457416e-04 -1.4415499196065837e-01 0.0000000000000000e+00  7.2095179376712335e-03 -1.4425550517857202e-01 0.0000000000000000e+00  1.5378672812288214e-02 -1.3336272860825768e-01 0.0000000000000000e+00  1.9798383905313636e-02 -5.0342216050185181e-03 0.0000000000000000e+00  1.9690952570287572e-02 -4.9693330383349078e-04 0.0000000000000000e+00  1.9025482871928519e-02 4.0701912234648741e-03 0.0000000000000000e+00  1.7370919521045341e-02 -2.4061289962538399e-01 0.0000000000000000e+00  1.0669574082486890e-02 -2.6979546708151475e-01 0.0000000000000000e+00  5.7941004854773241e-03 -2.4615151355916240e-01 0.0000000000000000e+00  0.0000000000000000e+00 0.0000000000000000e+00 0.0000000000000000e+00  0.0000000000000000e+00 0.0000000000000000e+00 0.0000000000000000e+00  -1.5700333989341242e-03 -2.3686998058574452e-01 0.0000000000000000e+00  -5.5171805969146505e-03 -2.6044905584913336e-01 0.0000000000000000e+00  -7.8711756763572005e-03 -2.3283396993276056e-01 0.0000000000000000e+00  -1.0802357094574208e-02 2.7816684923316140e-03 0.0000000000000000e+00  -1.0537925241538321e-02 -2.6217125011202018e-03 0.0000000000000000e+00  -9.9722220575153182e-03 -8.0403379688035789e-03 0.0000000000000000e+00  -7.8017936136381017e-03 -1.4574711028052903e-01 0.0000000000000000e+00  -4.4892655776152344e-03 -1.5584328687573024e-01 0.0000000000000000e+00  -4.8081613659475261e-04 -1.5565098566856089e-01 0.0000000000000000e+00  3.5445010469319807e-03 -1.5585183502937000e-01 0.0000000000000000e+00  8.2150801044287222e-03 -1.4481878709309970e-01 0.0000000000000000e+00  1.0662710989553402e-02 -6.6042403934641605e-03 0.0000000000000000e+00  1.0366985753716848e-02 -1.173745