<?xml version="1.0"?>
<VTKFile type="UnstructuredGrid"  version="0.1"  >
<UnstructuredGrid>
<Piece  NumberOfPoints="589" NumberOfCells="1080">
<Points>
<DataArray  type="Float64"  NumberOfComponents="3"  format="ascii">-9 0 0  -8 0 0  -7 0 0  -6 0 0  -5 0 0  -4 0 0  -3 0 0  -2 0 0  -1 0 0  0 0 0  1 0 0  2 0 0  3 0 0  4 0 0  5 0 0  6 0 0  7 0 0  8 0 0  9 0 0  -9 2 0  -8.000000252412514 1.999999780532304 0  -7.00000054166183 1.999999566802301 0  -6.000000923623372 1.999999360857475 0  -5.000001500442671 1.999999155115416 0  -4.000001126905454 1.999999425253607 0  -3.000000690535495 1.999999569393511 0  -2.000000401290966 1.999999655522597 0  -1.00000019471732 1.999999719599927 0  -3.793063206481474e-08 1.99999974598236 0  1.000000114080585 1.999999729717328 0  2.000000303192745 1.999999672950139 0  3.000000563415267 1.999999590552843 0  4.000000915890794 1.999999474352392 0  5.000001380230779 1.999999355921749 0  6.000000846594752 1.999999466738869 0  7.000000495159717 1.999999622336276 0  8.000000230407217 1.999999804762397 0  9 2 0  -9 4 0  -8.000000357477665 3.999999538114054 0  -7.000000712474527 3.999999102464121 0  -6.00000106781526 3.999998720904102 0  -5.000001431776292 3.999998425197842 0  -4.000001014920732 3.999998490420697 0  -3.000000654067744 3.999998720129115 0  -2.00000038279771 3.999999017444344 0  -1.000000189870343 3.999999242212855 0  -4.851210180624731e-08 3.999999333812594 0  1.000000088713896 3.999999273149146 0  2.000000270941003 3.999999089032753 0  3.000000544060434 3.999998827350248 0  4.000000910055356 3.999998555449561 0  5.000001300303249 3.999998415266284 0  6.000000964384779 3.999998754356799 0  7.000000643588952 3.999999137357949 0  8.000000323433053 3.99999955827909 0  9 4 0  -9 6 0  -8.000000472465882 5.999999190752268 0  -7.000000881911761 5.999998421766717 0  -6.000001177526118 5.999997737536031 0  -5.000001340144511 5.999997187709321 0  -4.000000744639792 5.999997448961759 0  -3.00000035924168 5.99999802118541 0  -2.000000199268855 5.999998622275953 0  -1.000000143353666 5.999998970744897 0  -9.443896484046704e-08 5.999999058837007 0  0.9999999764988808 5.999998944811249 0  2.000000093941484 5.999998638284233 0  3.000000273272923 5.999998141284432 0  4.000000569634314 5.999997627327498 0  5.000001098479029 5.99999738803352 0  6.000001021684414 5.999997866332553 0  7.000000789458455 5.999998500700142 0  8.000000429567374 5.999999228597193 0  9 6 0  -9 8 0  -8.000000839533444 7.999998682343219 0  -7.000001506674921 7.999997402051407 0  -6.000001819221255 7.999996216553466 0  -5.000001582595886 7.999995233829387 0  -4.000000721466543 7.999996390437877 0  -3.000000614938367 7.999997753372522 0  -2.000000660426939 7.99999847106335 0  -1.000000470883913 7.999998636291168 0  -1.191311661016257e-07 7.999998689588464 0  1.000000205474519 7.99999871616324 0  2.000000339890008 7.999998415873044 0  3.000000255124299 7.999997843184667 0  4.000000446150168 7.99999668023306 0  5.000001370087094 7.999995421917065 0  6.000001700709074 7.999996354035716 0  7.000001445987857 7.999997489925883 0  8.000000814406123 7.999998724893535 0  9 8 0  -9 10 0  -8.000001896164591 9.99999802447832 0  -7.000003549817242 9.999996003166402 0  -6.000004657597882 9.999993884484864 0  -5.000004768473797 9.999991602734166 0  -4.000003628852363 9.99999480523568 0  -3.000003344226603 9.999997633225901 0  -2.000002452232831 9.999997450868056 0  -1.000001226890284 9.99999739189853 0  -2.282070004432878e-07 9.999997381314042 0  1.000000765784198 9.999997359973634 0  2.000001957282583 9.999997265880474 0  3.000003264656253 9.999997922047566 0  4.000003579331545 9.999995223483047 0  5.00000478520108 9.99999185008916 0  6.000004721099029 9.99999402665954 0  7.000003609954519 9.999996082845941 0  8.000001930538755 9.999998060637791 0  9 10 0  -9 12 0  -8.000003922828025 11.99999754978047 0  -7.000007776423418 11.9999949937695 0  -6.000011483550272 11.99999220470806 0  -5.000014955771697 11.99998900456287 0  -4.0000145927644 11.99999394876672 0  -3.000014741395624 11.99999884111177 0  -2.000009775685106 11.99999822611426 0  -1.000004824056616 11.99999790514129 0  9.628788855456455e-08 11.99999783577102 0  1.000005068977942 11.99999802116189 0  2.000010198643603 11.999998533427 0  3.000015547632039 11.99999956402096 0  4.000015473731498 11.9999942518335 0  5.000015644279793 11.9999889236729 0  6.000011929628485 11.99999218083261 0  7.000008046989585 11.99999498935308 0  8.000004051151622 11.99999755010652 0  9 12 0  -9 14 0  -8.000006226395911 13.99999749825354 0  -7.000012588863486 13.99999491658314 0  -6.000019249057245 13.99999216927868 0  -5.000026428736036 13.99998916071356 0  -4.00002665122177 13.99999382722061 0  -3.00002631889032 13.99999858588707 0  -2.000017042863817 13.99999782527636 0  -1.000008296111998 13.99999741198321 0  2.114031395484519e-07 13.99999727119203 0  1.000008744302472 13.9999973748641 0  2.000017562780223 13.99999772767624 0  3.000026936131142 13.99999835317839 0  4.000027374188517 13.99999370995672 0  5.000027256155383 13.99998912718412 0  6.000019810037174 13.99999212958572 0  7.000012936779656 13.99999488694164 0  8.000006392992891 13.99999748302223 0  9 14 0  -9 16 0  -8.000007985647667 15.99999776642399 0  -7.000016210350492 15.99999550193724 0  -6.000024936545755 15.9999931788981 0  -5.000034475310408 15.99999077815009 0  -4.000034879274804 15.99999357706046 0  -3.0000343079923 15.99999634154147 0  -2.000022193026005 15.99999603519132 0  -1.000010811257617 15.99999582883444 0  2.24980327641939e-07 15.99999572877498 0  1.000011277346537 15.99999573202058 0  2.000022707496941 15.99999583118002 0  3.000034904415302 15.99999601217434 0  4.000035505655409 15.99999330067912 0  5.000035116400057 15.99999058974182 0  6.000025398908239 15.99999305852729 0  7.000016508630003 15.99999542963661 0  8.000008131624856 15.99999773235168 0  9 16 0  -9 18 0  -8.000008788653746 17.99999815823591 0  -7.00001782582252 17.9999963214999 0  -6.000027373682868 17.99999449935122 0  -5.000037721500066 17.9999927109609 0  -4.000038142601258 17.99999326998907 0  -3.000037597328837 17.99999383076306 0  -2.000024410477625 17.99999384510649 0  -1.000011944319337 17.99999382050382 0  1.740430115099257e-07 17.99999377314581 0  1.000012299288348 17.99999370552919 0  2.000024785218346 17.9999936073498 0  3.000038001796112 17.99999345419732 0  4.00003855464658 17.99999298673355 0  5.000038131978962 17.99999253434012 0  6.000027678843976 17.99999437817204 0  7.000018027337781 17.99999624590766 0  8.000008888707542 17.99999812194679 0  9 18 0  -9 20 0  -8.000008597582365 19.99999852993296 0  -7.000017398492903 19.99999708270949 0  -6.000026610879475 19.99999568476536 0  -5.000036451851509 19.9999943698374 0  -4.000036794030253 19.99999298456758 0  -3.000036365297435 19.9999916039965 0  -2.000023745224691 19.99999181080193 0  -1.000011686228843 19.99999190319286 0  9.557388931421835e-08 19.99999189854929 0  1.000011878523756 19.99999180128627 0  2.000023940417691 19.99999160340701 0  3.000036563566187 19.99999128415706 0  4.000036982416938 19.9999927658994 0  5.000036634577564 19.99999425670317 0  6.000026752204936 19.99999560219587 0  7.000017494505712 19.99999702896075 0  8.000008646073683 19.99999850348258 0  9 20 0  -9 22 0  -8.000007593188117 21.99999881025302 0  -7.000015325234684 21.99999764679792 0  -6.000023333692051 21.99999653810896 0  -5.000031752732808 21.99999551702713 0  -4.000031988955265 21.99999273599777 0  -3.000031715735298 21.99998996196404 0  -2.000020835716363 21.99999023414591 0  -1.000010319400313 21.99999037401192 0  1.251756138684428e-08 21.99999039442312 0  1.000010342009862 21.99999029949997 0  2.000020850654496 21.99999008493681 0  3.0000317165749 21.99998973810116 0  4.000031975168402 21.9999926019823 0  5.000031732038585 21.99999547147319 0  6.000023326831225 21.99999650112512 0  7.000015324581689 21.99999762098185 0  8.000007593997461 21.99999879703326 0  9 22 0  -9 24 0  -8.00000603335506 23.99999898540378 0  -7.000012146317427 23.99999799181887 0  -6.000018414142473 23.99999704101983 0  -5.000024902682124 23.99999615624137 0  -4.000025051635663 23.99999254264338 0  -3.0000249213246 23.9999889376852 0  -2.000016471436116 23.99998918674389 0  -1.000008214997365 23.99998932264204 0  -6.083509726898968e-08 23.99998935162618 0  1.000008088907719 23.99998927626522 0  2.000016331830746 23.99998909554673 0  3.00002475834299 23.99998880512619 0  4.000024875359794 23.99999248080574 0  5.000024723254458 23.99999616112165 0  6.000018289615826 23.999997039231 0  7.000012067982051 23.99999798822149 0  8.000005995570566 23.99999898292074 0  9 24 0  -9 26 0  -8.000004155091109 25.99999907650837 0  -7.000008347951872 25.99999816569477 0  -6.000012611714892 25.99999727984602 0  -5.000016969724732 25.999996430361 0  -4.000017070020124 25.99999241347876 0  -3.000017046819042 25.99998840543584 0  -2.000011333387872 25.99998859197783 0  -1.000005701503399 25.99998869892241 0  -1.165091282796032e-07 25.99998872620398 0  1.000005463101175 25.99998867445466 0  2.000011078683052 25.99998854495834 0  3.000016764450193 25.99998833995547 0  4.000016778514188 25.9999923956959 0  5.000016679800916 25.99999645603639 0  6.000012404361515 25.99999729381014 0  7.00000821448357 25.99999817262461 0  8.000004089779022 25.99999907928716 0  9 26 0  -9 28 0  -8.000002125748331 27.99999911690048 0  -7.000004265969725 27.99999823971062 0  -6.000006432271766 27.99999737321275 0  -5.000008630259909 27.99999651980828 0  -4.000008719856922 27.99999234929735 0  -3.0000087657999 27.99998818687524 0  -2.000005869180395 27.99998831559807 0  -1.000003000461797 27.9999883938518 0  -1.506466966567761e-07 27.99998841690241 0  1.00000269342217 27.99998838362924 0  2.000005544821967 27.99998829639283 0  3.000008412319769 27.99998816133269 0  4.000008361090885 27.99999234725727 0  5.000008276830356 27.9999965386687 0  6.000006176845672 27.99999738422553 0  7.000004100284031 27.9999982456349 0  8.000002044285504 27.99999911945203 0  9 28 0  -9 30 0  -
[...]
<PointData  Vectors="f_44-0"> 
<DataArray  type="Float64"  Name="f_44-0"  NumberOfComponents="3" format="ascii">0.0000000000000000e+00 0.0000000000000000e+00 0.0000000000000000e+00  -2.0233315046861402e-09 -2.8393255270360115e-02 0.0000000000000000e+00  2.5911945805805420e-09 -2.7733308794669172e-02 0.0000000000000000e+00  3.1478838850980251e-10 -2.0806829801644399e-02 0.0000000000000000e+00  0.0000000000000000e+00 0.0000000000000000e+00 0.0000000000000000e+00  0.0000000000000000e+00 0.0000000000000000e+00 0.0000000000000000e+00  0.0000000000000000e+00 0.0000000000000000e+00 0.0000000000000000e+00  0.0000000000000000e+00 0.0000000000000000e+00 0.0000000000000000e+00  0.0000000000000000e+00 0.0000000000000000e+00 0.0000000000000000e+00  0.0000000000000000e+00 0.0000000000000000e+00 0.0000000000000000e+00  0.0000000000000000e+00 0.0000000000000000e+00 0.0000000000000000e+00  0.0000000000000000e+00 0.0000000000000000e+00 0.0000000000000000e+00  0.0000000000000000e+00 0.0000000000000000e+00 0.0000000000000000e+00  0.0000000000000000e+00 0.0000000000000000e+00 0.0000000000000000e+00  0.0000000000000000e+00 0.0000000000000000e+00 0.0000000000000000e+00  -1.7838561564863695e-09 -2.8482848806470201e-02 0.0000000000000000e+00  2.9316107107939334e-09 -2.7788059471863441e-02 0.0000000000000000e+00  4.0786126965318705e-10 -2.0784811205152163e-02 0.0000000000000000e+00  0.0000000000000000e+00 0.0000000000000000e+00 0.0000000000000000e+00  0.0000000000000000e+00 0.0000000000000000e+00 0.0000000000000000e+00  1.6395776072262054e-06 -2.3971081951228324e-02 0.0000000000000000e+00  1.1465553819770245e-04 -2.7698148371278836e-02 0.0000000000000000e+00  1.9643383421539686e-04 -2.3978289227126883e-02 0.0000000000000000e+00  -1.8630465563087928e-05 -5.6858036752073251e-05 0.0000000000000000e+00  2.0251140534725190e-06 -5.9585649399424547e-05 0.0000000000000000e+00  2.2947443100394292e-06 -5.0560267881472732e-05 0.0000000000000000e+00  1.0148127498381229e-05 -3.4190117328153232e-05 0.0000000000000000e+00  1.0345329732958047e-05 -2.5713397925395498e-05 0.0000000000000000e+00  7.9771562462937116e-06 -2.4127060439668554e-05 0.0000000000000000e+00  5.1194565597815721e-06 -2.9488261274694713e-05 0.0000000000000000e+00  5.1199777967294415e-06 -3.9664994444064284e-05 0.0000000000000000e+00  8.6479578123938905e-06 -5.4122137364543847e-05 0.0000000000000000e+00  1.6266533213910007e-05 -6.3297116891829252e-05 0.0000000000000000e+00  1.9858400942933959e-05 -1.0748175324907178e-04 0.0000000000000000e+00  5.6743681430400010e-05 -2.4038133295821672e-02 0.0000000000000000e+00  1.7005522500498842e-04 -2.7750162125916061e-02 0.0000000000000000e+00  2.5546236618303482e-04 -2.4003017974165191e-02 0.0000000000000000e+00  0.0000000000000000e+00 0.0000000000000000e+00 0.0000000000000000e+00  0.0000000000000000e+00 0.0000000000000000e+00 0.0000000000000000e+00  4.2914472812465940e-05 -2.3947146862029353e-02 0.0000000000000000e+00  -1.9359526116218014e-05 -2.7430298102018583e-02 0.0000000000000000e+00  4.9093340414794320e-05 -2.4066259726586672e-02 0.0000000000000000e+00  -8.6851164143621261e-05 -1.1243440464690034e-04 0.0000000000000000e+00  -4.7601629362780838e-05 -8.5227948252693288e-05 0.0000000000000000e+00  -2.5365890864971126e-05 -4.7076409870153179e-05 0.0000000000000000e+00  -1.0798717910830395e-05 -3.1782047825784337e-05 0.0000000000000000e+00  -9.3407811252724020e-06 -2.7680715764769316e-05 0.0000000000000000e+00  -8.7608302434571621e-06 -3.1087914446906627e-05 0.0000000000000000e+00  -5.3995917047345287e-06 -3.8212291418411239e-05 0.0000000000000000e+00  5.9688352149016161e-06 -5.5080361631336389e-05 0.0000000000000000e+00  1.7872927836842233e-05 -7.5628210933416704e-05 0.0000000000000000e+00  3.4528295572496232e-05 -8.4335886932225077e-05 0.0000000000000000e+00  5.8881403847333126e-05 -6.5937086835643171e-05 0.0000000000000000e+00  1.1317824394758058e-04 -2.4011088873132965e-02 0.0000000000000000e+00  5.5971743404291085e-05 -2.7475006068801835e-02 0.0000000000000000e+00  1.2235981015933754e-04 -2.4082529461105288e-02 0.0000000000000000e+00  0.0000000000000000e+00 0.0000000000000000e+00 0.0000000000000000e+00  0.0000000000000000e+00 0.0000000000000000e+00 0.0000000000000000e+00  3.7495198100649037e-05 -2.3957170833329124e-02 0.0000000000000000e+00  -4.3582066883725531e-05 -2.7368517562352590e-02 0.0000000000000000e+00  -8.0806590185742703e-06 -2.4042646132800424e-02 0.0000000000000000e+00  -8.8103377703086004e-05 -1.5317815145907376e-04 0.0000000000000000e+00  -4.1984960572169437e-05 -1.0659251805787680e-04 0.0000000000000000e+00  -1.9583451799253305e-05 -7.4117355619987988e-05 0.0000000000000000e+00  -2.3517279506623615e-05 -7.1178616554082327e-05 0.0000000000000000e+00  -1.7864103558910793e-05 -6.2595384424543921e-05 0.0000000000000000e+00  -8.0119767989225633e-06 -4.6545080370085318e-05 0.0000000000000000e+00  -9.1960469401753923e-07 -4.5476246159459071e-05 0.0000000000000000e+00  -3.5089916809874474e-06 -6.6687125471290713e-05 0.0000000000000000e+00  6.7305024706987472e-06 -1.0166013764260481e-04 0.0000000000000000e+00  3.7907384317047128e-05 -1.5927285786676345e-04 0.0000000000000000e+00  5.9342793353088691e-05 -2.0065650772861570e-04 0.0000000000000000e+00  1.5340652344662323e-04 -2.4031490524969754e-02 0.0000000000000000e+00  7.8692831262371963e-05 -2.7393531044153631e-02 0.0000000000000000e+00  1.0069651578834552e-04 -2.4011013856424849e-02 0.0000000000000000e+00  0.0000000000000000e+00 0.0000000000000000e+00 0.0000000000000000e+00  0.0000000000000000e+00 0.0000000000000000e+00 0.0000000000000000e+00  -1.5003113498224320e-05 -2.3857061307239011e-02 0.0000000000000000e+00  -1.3576632116518486e-04 -2.7303454410477022e-02 0.0000000000000000e+00  -1.2531425483116394e-04 -2.4032981706830301e-02 0.0000000000000000e+00  -2.3292182627602970e-04 -3.1083831790169013e-04 0.0000000000000000e+00  -1.6517808975610951e-04 -1.9803391507459205e-04 0.0000000000000000e+00  -8.4729617811985769e-05 -1.6704381460958727e-04 0.0000000000000000e+00  -7.8316886813193246e-05 -1.4806775914014218e-04 0.0000000000000000e+00  -2.6805926179821268e-05 -1.0233645379468117e-04 0.0000000000000000e+00  1.3481886818965744e-05 -9.3133157017061710e-05 0.0000000000000000e+00  5.5986841747099807e-05 -1.2533534983716699e-04 0.0000000000000000e+00  7.7757974799405374e-05 -9.8258620541781419e-05 0.0000000000000000e+00  1.8058362018639608e-04 -1.6478183148961506e-04 0.0000000000000000e+00  1.9318438727695771e-04 -3.1552599414902735e-04 0.0000000000000000e+00  1.9202883402338254e-04 -4.0003802746569294e-04 0.0000000000000000e+00  2.4659807391141968e-04 -2.3999722475301074e-02 0.0000000000000000e+00  1.5261654664846207e-04 -2.7300292029247251e-02 0.0000000000000000e+00  1.3425424487054389e-04 -2.3905195092010487e-02 0.0000000000000000e+00  0.0000000000000000e+00 0.0000000000000000e+00 0.0000000000000000e+00  0.0000000000000000e+00 0.0000000000000000e+00 0.0000000000000000e+00  -1.2691385270244352e-04 -2.3602290628957277e-02 0.0000000000000000e+00  -3.5834305609229943e-04 -2.7086117000960412e-02 0.0000000000000000e+00  -4.3499592631611889e-04 -2.3980877078233653e-02 0.0000000000000000e+00  -6.6472094537311165e-04 -4.4560823109391474e-04 0.0000000000000000e+00  -5.0935304972287787e-04 -2.3393575942898850e-04 0.0000000000000000e+00  -4.0576580183384486e-04 -5.0244252173708505e-05 0.0000000000000000e+00  -1.8067771328250543e-04 -2.8727093361155087e-04 0.0000000000000000e+00  -7.1091308609772517e-05 -2.0232710554185236e-04 0.0000000000000000e+00  2.9959472422612093e-05 -1.8527047565528173e-04 0.0000000000000000e+00  1.2666483943944538e-04 -1.9008100858037218e-04 0.0000000000000000e+00  2.2913600220031928e-04 -2.1154727029282144e-04 0.0000000000000000e+00  4.6210530402689527e-04 -1.4911630714495243e-04 0.0000000000000000e+00  5.2332226081087713e-04 -3.9913672585928822e-04 0.0000000000000000e+00  6.8992181964724604e-04 -7.2447823549781382e-04 0.0000000000000000e+00  5.3813355388561835e-04 -2.3873515954930129e-02 0.0000000000000000e+00  3.4498143658791031e-04 -2.7076111455774633e-02 0.0000000000000000e+00  2.2084143149825078e-04 -2.3682259270336813e-02 0.0000000000000000e+00  0.0000000000000000e+00 0.0000000000000000e+00 0.0000000000000000e+00  0.0000000000000000e+00 0.0000000000000000e+00 0.0000000000000000e+00  -3.0224644121716485e-04 -2.3076000548594225e-02 0.0000000000000000e+00  -7.2707937112684242e-04 -2.6557340649335830e-02 0.0000000000000000e+00  -1.0124766799759011e-03 -2.3618134862169564e-02 0.0000000000000000e+00  -1.2341171992207550e-03 -7.8332377732278193e-04 0.0000000000000000e+00  -1.2828611662779536e-03 -3.0664398545520772e-04 0.0000000000000000e+00  -1.3959227155092904e-03 2.5722174520134439e-04 0.0000000000000000e+00  -8.7760991499968421e-04 -9.6541027907989666e-04 0.0000000000000000e+00  -3.8015081035151668e-04 -1.1440319852860767e-03 0.0000000000000000e+00  1.0059664169219462e-04 -1.1537331366660696e-03 0.0000000000000000e+00  5.8027756914098860e-04 -1.0452606865583981e-03 0.0000000000000000e+00  1.0056299259276040e-03 -7.1915075114850787e-04 0.0000000000000000e+00  1.2044441337125823e-03 6.1283705505711187e-05 0.0000000000000000e+00  1.2915696353564133e-03 -3.9075781787790552e-04 0.0000000000000000e+00  1.3968398647831320e-03 -7.7826374064471576e-04 0.0000000000000000e+00  1.0979077473361935e-03 -2.3502984888831707e-02 0.0000000000000000e+00  6.8978074523531245e-04 -2.6567781440063300e-02 0.0000000000000000e+00  3.7339648838460485e-04 -2.3221543817962879e-02 0.0000000000000000e+00  0.0000000000000000e+00 0.0000000000000000e+00 0.0000000000000000e+00  0.0000000000000000e+00 0.0000000000000000e+00 0.0000000000000000e+00  -5.0538917300931062e-04 -2.2189402930179302e-02 0.0000000000000000e+00  -1.1652955871589432e-03 -2.5588811303982262e-02 0.0000000000000000e+00  -1.7215809486684399e-03 -2.2808870056731666e-02 0.0000000000000000e+00  -2.1253037824677267e-03 -9.2055854555259499e-04 0.0000000000000000e+00  -2.1747239107172377e-03 -4.4722472797559254e-04 0.0000000000000000e+00  -2.1780871717371592e-03 -3.9187009621814782e-05 0.0000000000000000e+00  -1.5061270652734229e-03 -2.0282463702213506e-03 0.0000000000000000e+00  -7.0430876094552855e-04 -2.4327074728883128e-03 0.0000000000000000e+00  9.9666843886497876e-05 -2.4995826573498939e-03 0.0000000000000000e+00  8.9817528430943209e-04 -2.3599302476989608e-03 0.0000000000000000e+00  1.6815146113445642e-03 -1.7786352680929773e-03 0.0000000000000000e+00  2.1898658722110864e-03 1.4718681262160284e-04 0.0000000000000000e+00  2.2506067584852668e-03 -3.2723263292040765e-04 0.0000000000000000e+00  2.2625600130244212e-03 -8.1669270322681201e-04 0.0000000000000000e+00  1.8063410767380486e-03 -2.2635767645970004e-02 0.0000000000000000e+00  1.1265499764878330e-03 -2.5627549724117096e-02 0.0000000000000000e+00  5.6767288764798926e-04 -2.2414920209530044e-02 0.0000000000000000e+00  0.0000000000000000e+00 0.0000000000000000e+00 0.0000000000000000e+00  0.0000000000000000e+00 0.0000000000000000e+00 0.0000000000000000e+00  -6.8209282269027704e-04 -2.0942223241538816e-02 0.0000000000000000e+00  -1.5501421142882711e-03 -2.4169785950982865e-02 0.0000000000000000e+00  -2.3469726797696738e-03 -2.1535647642068285e-02 0.0000000000000000e+00  -3.0065041631268871e-03 -8.6936083503262671e-04 0.0000000000000000e+00  -3.0550769371439695e-03 -5.0861542900819564e-04 0.0000000000000000e+00  -3.0267616686190588e-03 -1.4597488519945475e-04 0.0000000000000000e+00  -2.0829604367387255e-03 -3.7348461867602587e-03 0.0000000000000000e+00  -1.0012528561674893e-03 -4.2801326572602001e-03 0.0000000000000000e+00  7.9377742593749617e-05 -4.3712797699991986e-03 0.0000000000000000e+00  1.1623842566983325e-03 -4.2246688527478029e-03 0.0000000000000000e+00  2.2569669236966287e-03 -3.4124504800367396e-03 0.0000000000000000e+00  3.0558115429478315e-03 3.9551120964533584e-05 0.0000000000000000e+00  3.1095327631878332e-03 -3.2120605634106152e-04 0.0000000000000000e+00  3.0868294880094494e-03 -6.6379702661037389e-04 0.0000000000000000e+00  2.4308766765480179e-03 -2.1306629977229062e-02 0.0000000000000000e+00  1.5271306884536888e-03 -2.4218062976706138e-02 0.0000000000000000e+00  7.5071890388114218e-04 -2.1232594302982750e-02 0.0000000000000000e+00  0.0000000000000000e+00 0.0000000000000000e+00 0.0000000000000000e+00  0.0000000000000000e+00 0.0000000000000000e+00 0.0000000000000000e+00  -7.9111343020963276e-04 -1.9425051578193620e-02 0.0000000000000000e+00  -1.7902235413768967e-03 -2.2408773453251905e-02 0.0000000000000000e+00  -2.7407403071774243e-03 -1.9916357337230503e-02 0.0000000000000000e+00  -3.6027192093260820e-03 -7.0246945950792319e-04 0.0000000000000000e+00  -3.6409724952305134e-03 -5.1971046366251111e-04 0.0000000000000000e+00  -3.5838669801375447e-03 -3.4300028841256856e-04 0.0000000000000000e+00  -2.4747167044057547e-03 -5.8343754666041305e-03 0.0000000000000000e+00  -1.2131858775330116e-03 -6.5962103377887717e-03 0.0000000000000000e+00  4.8280498989563867e-05 -6.6902271513241234e-03 0.0000000000000000e+00  1.3132720974007057e-03 -6.5364686063514536e-03 0.0000000000000000e+00  2.6037996685145128e-03 -5.4751775610527124e-03 0.0000000000000000e+00  3.6389955035790126e-03 -1.6398879432902026e-04 0.0000000000000000e+00  3.6844279299471385e-03 -3.3604797167100555e-04 0.0000000000000000e+00  3.6344446702419649e-03 -5.0325868453593089e-04 0.0000000000000000e+00  2.8356435192128980e-03 -1.9631717195311166e-02 0.0000000000000000e+00  1.7924623469937921e-03 -2.2449355109111859e-02 0.0000000000000000e+00  8.7557956632790571e-04 -1.9749903445525560e-02 0.0000000000000000e+00  0.0000000000000000e+00 0.0000000000000000e+00 0.0000000000000000e+00  0.0000000000000000e+00 0.0000000000000000e+00 0.0000000000000000e+00  -8.1349570859158061e-04 -1.7784836933971933e-02 0.0000000000000000e+00  -1.8443244430764413e-03 -2.0482410536631641e-02 0.0000000000000000e+00  -2.8402357791637864e-03 -1.8129278141947307e-02 0.0000000000000000e+00  -3.8078626621923066e-03 -4.9447723919607419e-04 0.0000000000000000e+00  -3.8374885030178166e-03 -5.1451567304792664e-04 0.0000000000000000e+00  -3.7765837956528453e-03 -5.3621148316312180e-04 0.0000000000000000e+00  -2.5993100845411055e-03 -8.1260108707857780e-03 0.0000000000000000e+00  -1.2966880017806015e-03 -9.1390762261633583e-03 0.0000000000000000e+00  1.2630074384409257e-05 -9.2363174268039073e-03 0.0000000000000000e+00  1.3264185214746553e-03 -9.0733873829077771e-03 0.0000000000000000e+00  2.6744927572206843e-03 -7.7486946558951251e-03 0.0000000000000000e+00  3.8272584022967389e-03 -4.0034543008479707e-04 0.0000000000000000e+00  3.8606210799349422e-03 -3.7017228283512933e-04 0.0000000000000000e+00  3.8026415332427042e-03 -3.3836240333956995e-04 0.0000000000000000e+00  2.9477492208207054e-03 -1.7817013913661917e-02 0.0000000000000000e+00  1.8744777349192041e-03 -2.0505539637053764e-02 0.0000000000000000e+00  9.1809683898115221e-04 -1.8109761846632075e-02 0.0000000000000000e+00  4.5392587154813862e-12 7.3730469288016961e-12 0.0000000000000000e+00  0.0000000000000000e+00 0.0000000000000000e+00 0.0000000000000000e+00  -7.4869824683249412e-04 -1.6186303173994672e-02 0.0000000000000000e+00  -1.7113412288595079e-03 -1.8587612641489920e-02 0.0000000000000000e+00  -2.6456399036704878e-03 -1.6364554646461648e-02 0.0000000000000000e+00  -3.6089454155512142e-03 -2.9343889411118698e-04 0.0000000000000000e+00  -3.6319014668162687e-03 -5.0087530991168412e-04 0.0000000000000000e+00  -3.5775879492170176e-03 -7.0728660100417102e-04 0.0000000000000000e+00  -2.4569896740994123e-03 -1.0354606009164012e-02 0.0000000000000000e+00  -1.2465849429102469e-03 -1.1643763400901482e-02 0.0000000000000000e+00  -2.2627619009092362e-05 -1.1749517120313713e-02 0.0000000000000000e+00  1.2068183553141023e-03 -1.1576578098399189e-02 0.0000000000000000e+00  2.4755682995189275e-03 -9.9956852370857788e-03 0.0000000000000000e+00  3.6099404752858583e-03 -6.2337738496369692e-04 0.0000000000000000e+00  3.6336369654511660e-03 -4.0605632744303565e-04 0.0000000000000000e+00  3.5806552505871208e-03 -1.8912375977141914e-04 0.0000000000000000e+00  2.7657163825161768e-03 -1.6057886947649005e-02 0.0000000000000000e+00  1.7679285953547546e-03 -1.8593293565807717e-02 0.0000000000000000e+00  8.7349054339712535e-04 -1.6480864690683272e-02 0.0000000000000000e+00  0.0000000000000000e+00 0.0000000000000000e+00 0.0000000000000000e+00  0.0000000000000000e+00 0.0000000000000000e+00 0.0000000000000000e+00  -6.0797578214595365e-04 -1.4783409826947291e-02 0.0000000000000000e+00  -1.4154486182619982e-03 -1.6908142132065589e-02 0.0000000000000000e+00  -2.1956724496950395e-03 -1.4793828544276516e-02 0.0000000000000000e+00  -3.0494071476622462e-03 -1.2596950494617095e-04 0.0000000000000000e+00  -3.0672489472072838e-03 -4.8758055839472943e-04 0.0000000000000000e+00  -3.0262482777846733e-03 -8.4707615682041743e-04 0.0000000000000000e+00  -2.0786216308028693e-03 -1.2302673748429327e-02 0.0000000000000000e+00  -1.0763713249612897e-03 -1.3862454620293960e-02 0.0000000000000000e+00  -5.3585147943501365e-05 -1.3982750690402014e-02 0.0000000000000000e+00  9.7557824460685881e-04 -1.3801719656794113e-02 0.0000000000000000e+00  2.0462472137413429e-03 -1.1997651165841568e-02 0.0000000000000000e+00  3.0338595827377234e-03 -8.0600840388055138e-04 0.0000000000000000e+00  3.0495782995425937e-03 -4.3603649950871683e-04 0.0000000000000000e+00  3.0073364680976980e-03 -6.7697502177831205e-05 0.0000000000000000e+00  2.3273954719143161e-03 -1.4527364084518398e-02 0.0000000000000000e+00  1.4948998614891919e-03 -1.6901862764614743e-02 0.0000000000000000e+00  7.5064838277021030e-04 -1.5023586428783389e-02 0.0000000000000000e+00  0.0000000000000000e+00 0.0000000000000000e+00 0.0000000000000000e+00  0.0000000000000000e+00 0.0000000000000000e+00 0.0000000000000000e+00  -4.0881583643138269e-04 -1.3702732136455377e-02 0.0000000000000000e+00  -9.9391451191639299e-04 -1.5595648926706967e-02 0.0000000000000000e+00  -1.5485429017140877e-03 -1.3555514018311909e-02 0.0000000000000000e+00  -2.2046797060692415e-03 -4.5621214399178850e-06 0.0000000000000000e+00  -2.2182320609674352e-03 -4.7862148019797869e-04 0.0000000000000000e+00  -2.1925849538700659e-03 -9.5049353978567293e-04 0.0000000000000000e+00  -1.5145806444053134e-03 -1.3798062211927186e-02 0.0000000000000000e+00  -8.0948334120340131e-04 -1.5592260233813566e-02 0.0000000000000000e+00  -7.7485790615151940e-05 -1.5730824433012363e-02 0.0000000000000000e+00  6.6155304367767048e-04 -1.5546197795963879e-02 0.0000000000000000e+00  1.4421396397011458e-03 -1.3576643600815915e-02 0.0000000000000000e+00  2.1766491834969088e-03 -9.3628149631247133e-04 0.0000000000000000e+00  2.1851427247331304e-03 -4.5628981841585892e-04 0.0000000000000000e+00  2.1556212303330178e-03 2.2049583530736733e-05 0.0000000000000000e+00  1.6895440375739510e-03 -1.3359209245803645e-02 0.0000000000000000e+00  1.0909129799396597e-03 -1.5585077038106444e-02 0.0000000000000000e+00  5.6537715963964096e-04 -1.3871362257042609e-02 0.0000000000000000e+00  0.0000000000000000e+00 0.0000000000000000e+00 0.0000000000000000e+00  0.0000000000000000e+00 0.0000000000000000e+00 0.0000000000000000e+00  -1.7125627479405177e-04 -1.3035910495110010e-02 0.0000000000000000e+00  -4.8909682632609669e-04 -1.4761153183773809e-02 0.0000000000000000e+00  -7.6976211003783139e-04 -1.2749678576583320e-02 0.0000000000000000e+00  -1.1652435960993800e-03 6.8176337910522133e-05 0.0000000000000000e+00  -1.1739550774169324e-03 -4.7401583741821587e-04 0.0000000000000000e+00  -1.1627891287901474e-03 -1.0147623546789238e-03 0.0000000000000000e+00  -8.2237567497300530e-04 -1.4720208232163915e-02 0.0000000000000000e+00  -4.7364202468440364e-04 -1.6686363092739430e-02 0.0000000000000000e+00  -9.2550019127003692e-05 -1.6843405758550485e-02 0.0000000000000000e+00  2.9598925761350781e-04 -1.6661507787160065e-02 0.0000000000000000e+00  7.2439875315524196e-04 -1.4603486787862208e-02 0.0000000000000000e+00  1.1302574675373250e-03 -1.0119268202168658e-03 0.0000000000000000e+00  1.1309777839