<?xml version="1.0"?>
<VTKFile type="UnstructuredGrid"  version="0.1"  >
<UnstructuredGrid>
<Piece  NumberOfPoints="589" NumberOfCells="1080">
<Points>
<DataArray  type="Float64"  NumberOfComponents="3"  format="ascii">-9 0 0  -8 0 0  -7 0 0  -6 0 0  -5 0 0  -4 0 0  -3 0 0  -2 0 0  -1 0 0  0 0 0  1 0 0  2 0 0  3 0 0  4 0 0  5 0 0  6 0 0  7 0 0  8 0 0  9 0 0  -9 2 0  -8.000003300255534 1.999994597123995 0  -7.000006982680473 1.999989875248666 0  -6.000011916267099 1.999986389571224 0  -5.000020061279199 1.999984388455732 0  -4.00001160683547 1.999988235359399 0  -3.00000285036103 1.99999197985131 0  -1.999998584014946 1.999995529679948 0  -0.9999978946579275 1.999998318039458 0  5.882033470612232e-07 1.999999475767956 0  0.9999990030086364 1.999998452211387 0  1.999999460210873 1.999995422190291 0  3.000003422271265 1.999991646964669 0  4.000011451862137 1.999987388605731 0  5.000023233891256 1.999984950694917 0  6.000014358600609 1.999985985460559 0  7.000008653606186 1.999989351027035 0  8.000004152600775 1.99999427897233 0  9 2 0  -9.000000000004983 4 0  -8.00000507180502 3.99998647041653 0  -7.000008960733368 3.999974805830823 0  -6.000010986810569 3.999966840963213 0  -5.000011327415039 3.999964340521973 0  -3.999998772001665 3.999965899519245 0  -2.999990295255885 3.999976532822924 0  -1.999988039096988 3.99999049097346 0  -0.9999911873536237 4.000001689473625 0  2.728745784840426e-06 4.000006031895669 0  0.9999965766944889 4.000001992028698 0  1.999993231035088 3.999991580452424 0  2.999995592793633 3.999977430858297 0  4.000004563411768 3.999962855148682 0  5.000017964499425 3.999956786405683 0  6.000016035925102 3.999962647884298 0  7.000012491163554 3.999972452788604 0  8.000006911466588 3.999985385868178 0  9 4 0  -9 6 0  -8.000011574651616 5.999970884586256 0  -7.000018390191133 5.999944938349564 0  -6.000016799233715 5.999925435441397 0  -5.000005721082205 5.999915555824665 0  -3.99998098024956 5.999931119525 0  -2.999969568929014 5.999964298118083 0  -1.999973615000896 5.999999237341235 0  -0.999984371473727 6.000018811545068 0  4.53480061218377e-06 6.000022605301965 0  0.9999944223314826 6.000015729737108 0  1.999986735420005 5.999997010579708 0  2.999984118084525 5.999965444874742 0  3.999990643470249 5.999932413586353 0  5.000012922732038 5.999915218156801 0  6.000024178016149 5.99992353744827 0  7.000024468178079 5.999943042848234 0  8.000014996978432 5.999969769520198 0  9 6 0  -9 8 0  -8.000037111475148 7.999942626211545 0  -7.00006144410805 7.999889301934091 0  -6.000060559442449 7.999845541155265 0  -5.000023666254353 7.999820452691255 0  -3.999976120908078 7.999893416648134 0  -2.999983592682746 7.999979561397472 0  -2.000000360890842 8.000022250531883 0  -1.000001421299952 8.000028010176379 0  9.242879338288554e-06 8.00002981848171 0  1.000016974780956 8.000034074544642 0  2.000013282923109 8.000014883564802 0  2.999991873915869 7.999982268725644 0  3.999984825939376 7.999903132258016 0  5.00003371453408 7.999814090355621 0  6.000076177352809 7.999839689099224 0  7.000075486727847 7.999884752910557 0  8.00004518214897 7.999940141859891 0  9 8 0  -9 10 0  -8.000113743698732 9.999898186008924 0  -7.000205345269679 9.999795436646426 0  -6.00024833229211 9.99969099918669 0  -5.000205760621062 9.99958454439119 0  -4.000130997277063 9.999818535097042 0  -3.000140866050125 10.00002047492785 0  -2.000109424901516 9.999988612018685 0  -1.00004364563915 9.999978415205506 0  5.636531750734613e-06 9.999975920803113 0  1.000055011926962 9.999975823541233 0  2.000121285811769 9.999973439228032 0  3.000178901194382 10.00004825701087 0  4.000171353296553 9.999842997896994 0  5.000261508147966 9.999572978736607 0  6.000300743181323 9.999678017597791 0  7.000244930817164 9.999785183382334 0  8.000134857470714 9.999892650861543 0  9 10 0  -9 12 0  -8.00027885281253 11.99985752143592 0  -7.000543554697449 11.99970838121387 0  -6.000778049926137 11.99954462657948 0  -5.000962373693889 11.99935519545859 0  -4.000924064510447 11.9997790480159 0  -3.000955777053518 12.00019848634637 0  -2.00063631048823 12.00015136744774 0  -1.000284549954445 12.00012762665537 0  7.855221441849682e-05 12.00012625520498 0  1.000443353186799 12.00014842310146 0  2.000801176648836 12.00019972264693 0  3.001134556041212 12.00029385388412 0  4.001095543494644 11.99980083675598 0  5.001123627217241 11.99930363679928 0  6.000905261723881 11.99950792532823 0  7.000631299408354 11.99968446057889 0  8.000323595600966 11.99984566652012 0  9 12 0  -9 14 0  -8.000500378230193 13.99984354162792 0  -7.001002290403397 13.99967984942604 0  -6.001507939125892 13.99950105627943 0  -5.002021306908201 13.9992980560713 0  -4.00202621782743 13.99978945885363 0  -3.002026528919691 14.00028692083485 0  -2.001292727524191 14.00022068156679 0  -1.000570960822425 14.00018742385002 0  0.0001447507834937188 14.00018249316579 0  1.000859931074467 14.00020457484508 0  2.0015794343679 14.00025479430323 0  3.002306670531992 14.00033580075605 0  4.002311569983484 13.99978102162483 0  5.002317758518049 13.99922931351574 0  6.001731643723794 13.99944901868831 0  7.001152325398654 13.99964515885076 0  8.000575707214505 13.99982622934894 0  9 14 0  -9 16 0  -8.000715514260961 15.99985852209519 0  -7.001445660944364 15.99971177470191 0  -6.002206275773539 15.99955439471804 0  -5.003015698434811 15.99938092232531 0  -4.003044680273635 15.99979368511157 0  -3.00301454512801 16.00020392881431 0  -2.001901679951172 16.00015828338682 0  -1.000833429420131 16.00013408692751 0  0.0002131207351876559 16.00013084133099 0  1.001259584567708 16.00014833538563 0  2.002327501019403 16.00018688014933 0  3.003439700008295 16.00024719969511 0  4.003471359357931 15.99976611166873 0  5.003445453502896 15.99928438989595 0  6.00252994941001 15.99948449277397 0  7.001662007492316 15.99966622047091 0  8.000823848066487 15.99983603675071 0  9 16 0  -9 18 0  -8.000871855642401 17.99989458673841 0  -7.001766678845963 17.99978625736594 0  -6.002708607448307 17.99967214589583 0  -5.003724131799281 17.99954950559249 0  -4.003768217904812 17.9997929648047 0  -3.003723341609533 18.00003581195851 0  -2.00233304978584 18.00001026787858 0  -1.001009490549526 17.99999713417346 0  0.0002818530907661287 17.99999641786808 0  1.001573852279392 18.00000807784743 0  2.002899333934582 18.00003204607056 0  3.004292675187013 18.00006816267778 0  4.004339485583264 17.99975454503768 0  5.004296284960957 17.99944148396685 0  6.003136980312218 17.99959354697054 0  7.002051910074711 17.99973497717723 0  8.001014367758788 17.99986927527457 0  9 18 0  -9 20 0  -8.000936081082498 19.99994231177045 0  -7.00189878428534 19.99988387550854 0  -6.002915747769291 19.99982402830625 0  -5.004016647374555 19.99976227858117 0  -4.004067004605592 19.99979073417808 0  -3.004015205277309 19.99981856709501 0  -2.002498491365242 19.99981274484207 0  -1.001057152195333 19.99981065656749 0  0.0003479714383279719 19.99981262935697 0  1.001754666406221 19.99981872439834 0  2.003200736351928 19.99982874744017 0  3.004725400766549 19.99984222512427 0  4.004778806102506 19.99974812563423 0  5.004727227464775 19.99965436513273 0  6.003446011173574 19.99974515637598 0  7.002251041032786 19.99983227345302 0  8.001111838070697 19.99991680373068 0  8.999999999970663 19.99999999999815 0  -9 22 0  -8.000893587954302 21.99999302518798 0  -7.001813355505387 21.99998713829359 0  -6.002786313818658 21.99998352500618 0  -5.003841134346715 21.99998356880667 0  -4.003890258430562 21.99978657969246 0  -3.003839601399464 21.99958896269404 0  -2.002363463932986 21.99960033074091 0  -1.000960427858236 21.99960798479738 0  0.0004078231300948475 21.99961240307513 0  1.001778495536847 21.99961370779833 0  2.003188834333177 21.99961167250006 0  3.004677273969056 21.99960571580672 0  4.00472939792296 21.99974537679076 0  5.004677142077585 21.99988517984378 0  6.003409035832705 21.99991145851828 0  7.002226484117779 21.99993991113278 0  8.001099549762756 21.99996965624387 0  9 22 0  -9 24 0  -8.000746133520117 24.00003938899014 0  -7.001514650481076 24.00008130980235 0  -6.00232857538496 24.0001283966524 0  -5.003212187108036 24.0001834930657 0  -4.003254107454275 23.99978081881327 0  -3.003210953583414 23.99937758703165 0  -2.001937044055057 23.99940273067534 0  -1.000725025520356 23.99941821774632 0  0.0004580244839056074 23.99942459346648 0  1.00164419666942 23.99942201220984 0  2.002865630534457 23.99941023976661 0  3.004155396372679 23.99938865093176 0  4.004199882505702 23.99974562157831 0  5.004153361118844 24.00010262483066 0  6.003028870409714 24.00006905473703 0  7.001978877153642 24.0000423706103 0  8.000977458378491 24.0000201059301 0  9 24 0  -9 26 0  -8.000508857737795 26.00007563272333 0  -7.001033759077638 26.00015482358245 0  -6.001591189690852 26.00024123630962 0  -5.002198472143951 26.00033875015633 0  -4.002228643444511 25.99977386084156 0  -3.00219783429068 25.99920850779965 0  -2.00126404835849 25.99924366140045 0  -1.000374194828724 25.99926480205639 0  0.0004957830485544075 25.99927251796164 0  1.00136939433416 25.99926698652624 0  2.002270199929596 25.99924797514728 0  3.003222417921056 25.99921484042552 0  4.003254446949122 25.99974815559314 0  5.003218593002679 26.00028140048 0  6.00234976546014 26.00019910093012 0  7.001536398123993 26.00012714986526 0  8.000759256775018 26.00006192060751 0  9 26 0  -9 28 0  -8.000207072261775 28.00009765184268 0  -7.000422142801436 28.00019945792872 0  -6.000653445872199 28.00030968055778 0  -5.000909624338178 28.00043279974134 0  -4.000924978552998 27.99976626076507 0  -3.000909751145621 27.99909938512531 0  -2.000416295473678 27.99914054170576 0  -0.9999443042163889 27.99916498312938 0  0.0005190535311347038 27.99917332964483 0  1.000986346564794 27.99916577744382 0  2.00147019813802 27.99914209940274 0  3.001983603962568 27.99910164443408 0  4.001999957781713 27.99975238542251 0  5.001978255475258 28.00040298546109 0  6.001447859997408 28.00028775294312 0  7.000948416308364 28.00018504519885 0  8
[...]
<PointData  Vectors="f_44-0"> 
<DataArray  type="Float64"  Name="f_44-0"  NumberOfComponents="3" format="ascii">0.0000000000000000e+00 0.0000000000000000e+00 0.0000000000000000e+00  6.2846029026016527e-07 -1.2309592379935573e+01 0.0000000000000000e+00  5.6399735308479980e-07 -1.2717348640274919e+01 0.0000000000000000e+00  6.9980872546370390e-07 -1.2138804644250927e+01 0.0000000000000000e+00  0.0000000000000000e+00 0.0000000000000000e+00 0.0000000000000000e+00  0.0000000000000000e+00 0.0000000000000000e+00 0.0000000000000000e+00  0.0000000000000000e+00 0.0000000000000000e+00 0.0000000000000000e+00  0.0000000000000000e+00 0.0000000000000000e+00 0.0000000000000000e+00  0.0000000000000000e+00 0.0000000000000000e+00 0.0000000000000000e+00  0.0000000000000000e+00 0.0000000000000000e+00 0.0000000000000000e+00  0.0000000000000000e+00 0.0000000000000000e+00 0.0000000000000000e+00  0.0000000000000000e+00 0.0000000000000000e+00 0.0000000000000000e+00  0.0000000000000000e+00 0.0000000000000000e+00 0.0000000000000000e+00  0.0000000000000000e+00 0.0000000000000000e+00 0.0000000000000000e+00  0.0000000000000000e+00 0.0000000000000000e+00 0.0000000000000000e+00  6.4016482659156434e-07 -1.2308890069667529e+01 0.0000000000000000e+00  5.6967995427093497e-07 -1.2718388162481199e+01 0.0000000000000000e+00  7.0560443014484353e-07 -1.2140475653095871e+01 0.0000000000000000e+00  0.0000000000000000e+00 0.0000000000000000e+00 0.0000000000000000e+00  0.0000000000000000e+00 0.0000000000000000e+00 0.0000000000000000e+00  -5.6300909324587943e-02 -1.2216045421103406e+01 0.0000000000000000e+00  -1.8718380825560231e-02 -1.2733184480723788e+01 0.0000000000000000e+00  -8.1523378769362449e-03 -1.2205530435913404e+01 0.0000000000000000e+00  1.3078680361007695e-03 1.4426927481054681e-04 0.0000000000000000e+00  1.1726437334713582e-03 -1.9317636861948328e-04 0.0000000000000000e+00  5.9565591733089240e-04 -8.2019749865731604e-05 0.0000000000000000e+00  3.8537772927932568e-04 1.6264430148744450e-04 0.0000000000000000e+00  2.3023101375483805e-04 2.7312398221377896e-04 0.0000000000000000e+00  1.5373409868322258e-04 1.8913506969122263e-04 0.0000000000000000e+00  7.3644719364456365e-05 -1.3296033590462391e-06 0.0000000000000000e+00  -2.6646348910154656e-05 -2.1092670047305611e-04 0.0000000000000000e+00  -2.5662261571669131e-04 -5.5184457399791041e-04 0.0000000000000000e+00  -6.5123472005512468e-04 -5.8977501820975462e-04 0.0000000000000000e+00  -1.2700067917584908e-03 -1.2483367273266959e-03 0.0000000000000000e+00  -5.7966219934293260e-02 -1.2218684032069653e+01 0.0000000000000000e+00  -1.9663403537324636e-02 -1.2736334994198163e+01 0.0000000000000000e+00  -9.7465926529833689e-03 -1.2208500265571651e+01 0.0000000000000000e+00  0.0000000000000000e+00 0.0000000000000000e+00 0.0000000000000000e+00  0.0000000000000000e+00 0.0000000000000000e+00 0.0000000000000000e+00  -1.3960105147418276e-02 -1.2209283880609615e+01 0.0000000000000000e+00  -3.4414423776880171e-02 -1.2721143849008028e+01 0.0000000000000000e+00  -1.8060160039815740e-02 -1.2208758581239326e+01 0.0000000000000000e+00  -3.1239546573207273e-04 -1.2193915880639921e-04 0.0000000000000000e+00  1.6917634849080096e-05 8.4200316855059419e-04 0.0000000000000000e+00  -4.7297913033395286e-05 1.3865867152434315e-03 0.0000000000000000e+00  -1.4584924327368473e-04 1.0940679280686491e-03 0.0000000000000000e+00  -2.8215985824547592e-04 3.3066857504559681e-04 0.0000000000000000e+00  -2.1041964869288876e-04 -2.3792077146471457e-04 0.0000000000000000e+00  4.8694743904956525e-06 -2.2405254607685613e-04 0.0000000000000000e+00  4.6011013611930432e-04 -3.0445955976377183e-04 0.0000000000000000e+00  4.8281915215156348e-04 -3.3813046146412816e-04 0.0000000000000000e+00  1.2348627477960322e-04 3.5697574463561190e-04 0.0000000000000000e+00  -3.6767278579262567e-04 9.8250429039184331e-04 0.0000000000000000e+00  -1.5072714792441428e-02 -1.2208031164170301e+01 0.0000000000000000e+00  -3.5373693945987619e-02 -1.2718285668541304e+01 0.0000000000000000e+00  -1.9780184133007021e-02 -1.2205382175399826e+01 0.0000000000000000e+00  0.0000000000000000e+00 0.0000000000000000e+00 0.0000000000000000e+00  0.0000000000000000e+00 0.0000000000000000e+00 0.0000000000000000e+00  7.8182884034605092e-04 -1.2204245903416265e+01 0.0000000000000000e+00  -8.8656302064889902e-03 -1.2701470237556546e+01 0.0000000000000000e+00  -1.0866457808019786e-02 -1.2185915672351095e+01 0.0000000000000000e+00  -1.2204159329979156e-03 2.9568164322808007e-03 0.0000000000000000e+00  -1.0904755508401574e-03 3.9017188181823897e-03 0.0000000000000000e+00  -1.3073087669882584e-03 2.6871290081052104e-03 0.0000000000000000e+00  -1.6573743075736242e-03 -3.9456683305744188e-04 0.0000000000000000e+00  -9.2095525499191148e-04 -1.8887931241563015e-03 0.0000000000000000e+00  3.3375633467341275e-06 -1.2827400992704867e-03 0.0000000000000000e+00  7.6223944166403472e-04 -7.5248118005659457e-04 0.0000000000000000e+00  8.4517408452980337e-04 -2.4540022590865366e-04 0.0000000000000000e+00  1.2022952392143804e-03 6.7721961706962398e-04 0.0000000000000000e+00  1.4362077282413946e-03 2.1080607986440926e-04 0.0000000000000000e+00  1.5397116891346162e-04 -7.2126475060258779e-04 0.0000000000000000e+00  3.3184783283803879e-05 -1.2203201205931888e+01 0.0000000000000000e+00  -1.4512946379773812e-02 -1.2706412250031645e+01 0.0000000000000000e+00  -1.8307392735492835e-02 -1.2196848409731391e+01 0.0000000000000000e+00  0.0000000000000000e+00 0.0000000000000000e+00 0.0000000000000000e+00  0.0000000000000000e+00 0.0000000000000000e+00 0.0000000000000000e+00  3.8036836703877123e-03 -1.2211677498483539e+01 0.0000000000000000e+00  -1.2831571162738134e-04 -1.2712270860174741e+01 0.0000000000000000e+00  -6.8312715397229485e-03 -1.2205290529463625e+01 0.0000000000000000e+00  -5.1385370964026908e-03 3.2567118517680799e-03 0.0000000000000000e+00  -7.1412068118071916e-03 3.8206313584061447e-03 0.0000000000000000e+00  -2.5396335538494900e-03 -2.0658340138089430e-03 0.0000000000000000e+00  -1.8941231957140582e-03 -5.4785694091484321e-03 0.0000000000000000e+00  5.4884118973976990e-04 -3.4237653979114642e-03 0.0000000000000000e+00  1.0751810960940942e-03 -3.1010213657075266e-03 0.0000000000000000e+00  2.3532340086821219e-03 -5.6431868408592500e-03 0.0000000000000000e+00  2.2553888834787768e-03 -1.2420004660784712e-03 0.0000000000000000e+00  9.2501314483672062e-03 -2.7659210948478199e-03 0.0000000000000000e+00  1.0142436103762777e-02 -5.6355006115086821e-03 0.0000000000000000e+00  5.4277631562066036e-03 -3.0213105208247884e-03 0.0000000000000000e+00  5.2711396170914717e-04 -1.2206223346422453e+01 0.0000000000000000e+00  -9.4018376002579082e-04 -1.2702796186532353e+01 0.0000000000000000e+00  -8.6584973224478369e-03 -1.2192923735469883e+01 0.0000000000000000e+00  0.0000000000000000e+00 0.0000000000000000e+00 0.0000000000000000e+00  0.0000000000000000e+00 0.0000000000000000e+00 0.0000000000000000e+00  4.7682121406803614e-03 -1.2211443180691521e+01 0.0000000000000000e+00  6.0736682746798847e-03 -1.2705557732804573e+01 0.0000000000000000e+00  6.8971920117788929e-03 -1.2187365387414745e+01 0.0000000000000000e+00  -2.0004115153283927e-02 1.9312629275723654e-02 0.0000000000000000e+00  -1.6163420303134893e-02 1.0589660427624610e-02 0.0000000000000000e+00  -6.9959449415764674e-03 3.1163101952359114e-03 0.0000000000000000e+00  3.5274659952909955e-03 -8.6687030309262475e-03 0.0000000000000000e+00  2.1538194254743168e-03 -3.1093748595987002e-03 0.0000000000000000e+00  2.5014547511012127e-03 -2.0933442314028552e-03 0.0000000000000000e+00  2.7549810356282986e-03 -2.3395379495488376e-03 0.0000000000000000e+00  9.0010390706358817e-04 -2.6302373688595446e-03 0.0000000000000000e+00  1.4477540696309013e-02 -6.4559275837395898e-03 0.0000000000000000e+00  1.8737813267968990e-02 -6.3545098280098442e-03 0.0000000000000000e+00  1.7442566351401595e-02 -2.0533953848084572e-03 0.0000000000000000e+00  -3.0592062119047671e-04 -1.2198251383352881e+01 0.0000000000000000e+00  -1.4371110549141048e-03 -1.2699794288921941e+01 0.0000000000000000e+00  -3.1134832456637799e-03 -1.2193228369316172e+01 0.0000000000000000e+00  0.0000000000000000e+00 0.0000000000000000e+00 0.0000000000000000e+00  0.0000000000000000e+00 0.0000000000000000e+00 0.0000000000000000e+00  8.4026799867149039e-03 -1.2219429940178843e+01 0.0000000000000000e+00  1.6059363288079127e-02 -1.2711486531594351e+01 0.0000000000000000e+00  2.1007181456383948e-02 -1.2194334116618688e+01 0.0000000000000000e+00  1.0723200946925960e-02 2.1188857743770981e-02 0.0000000000000000e+00  5.3196678737018246e-03 1.2324243655796603e-02 0.0000000000000000e+00  -2.4151283709277006e-04 9.1666900372203135e-03 0.0000000000000000e+00  -1.1248898410604999e-03 -3.4840792748407549e-03 0.0000000000000000e+00  -6.8583716602409715e-04 -1.0262427547291467e-03 0.0000000000000000e+00  -8.3603030687706443e-04 1.6985662418855447e-03 0.0000000000000000e+00  -2.8476686544214348e-03 -8.5632562045068899e-04 0.0000000000000000e+00  -1.1529293353801699e-02 -1.0660118042609485e-02 0.0000000000000000e+00  -1.4702107932622674e-02 -1.4648972832101795e-02 0.0000000000000000e+00  -7.3976665299306747e-03 -2.2516750339798600e-03 0.0000000000000000e+00  -2.6553783933171661e-03 1.3614249879286777e-02 0.0000000000000000e+00  -4.3645064922636949e-03 -1.2201658935540948e+01 0.0000000000000000e+00  -7.5000975880505664e-03 -1.2709822883905749e+01 0.0000000000000000e+00  -3.6850755837211876e-03 -1.2203530226603199e+01 0.0000000000000000e+00  0.0000000000000000e+00 0.0000000000000000e+00 0.0000000000000000e+00  0.0000000000000000e+00 0.0000000000000000e+00 0.0000000000000000e+00  1.3308340197946385e-02 -1.2239805926564724e+01 0.0000000000000000e+00  2.7918195348148107e-02 -1.2730686814637684e+01 0.0000000000000000e+00  3.9079752022270015e-02 -1.2214540954564740e+01 0.0000000000000000e+00  5.0464023526450720e-02 1.6565816642236143e-02 0.0000000000000000e+00  4.7751735937079903e-02 3.9161437108790826e-03 0.0000000000000000e+00  4.6273073675825498e-02 -1.2468931788311389e-02 0.0000000000000000e+00  3.9481381426722729e-02 1.2443047650192962e-02 0.0000000000000000e+00  1.9016087622018979e-02 1.8967100456010945e-02 0.0000000000000000e+00  1.4464038704774514e-03 2.1986438247823977e-02 0.0000000000000000e+00  -1.4336597414180334e-02 2.0511186585908704e-02 0.0000000000000000e+00  -2.9351755334847369e-02 1.5455785590916269e-02 0.0000000000000000e+00  -5.0337310684982685e-02 -7.9011128971693701e-03 0.0000000000000000e+00  -4.7577027174100832e-02 4.8717574674614532e-03 0.0000000000000000e+00  -4.6053568355901256e-02 1.6107073046977286e-02 0.0000000000000000e+00  -2.9988578874681572e-02 -1.2228200136734415e+01 0.0000000000000000e+00  -1.3690651769299582e-02 -1.2733420537614666e+01 0.0000000000000000e+00  -6.7206565591331228e-03 -1.2228215670177720e+01 0.0000000000000000e+00  0.0000000000000000e+00 0.0000000000000000e+00 0.0000000000000000e+00  0.0000000000000000e+00 0.0000000000000000e+00 0.0000000000000000e+00  1.8128393577463962e-02 -1.2273370809281747e+01 0.0000000000000000e+00  3.9064600314900465e-02 -1.2763858141038478e+01 0.0000000000000000e+00  5.6019174692208816e-02 -1.2251114210332947e+01 0.0000000000000000e+00  8.2441121564868117e-02 9.3828681057938727e-03 0.0000000000000000e+00  8.0930016523849443e-02 -1.3503563732573517e-03 0.0000000000000000e+00  7.8171111965957690e-02 -1.1755618797138491e-02 0.0000000000000000e+00  5.3049900457948655e-02 6.2106694315997461e-02 0.0000000000000000e+00  2.6188751398258794e-02 6.1140156602437108e-02 0.0000000000000000e+00  1.5757392385453302e-03 6.2066876737463868e-02 0.0000000000000000e+00  -2.2423437294627060e-02 6.0784211809890180e-02 0.0000000000000000e+00  -5.0322016497701981e-02 5.7735585945040468e-02 0.0000000000000000e+00  -8.3287746942209098e-02 -9.8193688624794296e-04 0.0000000000000000e+00  -8.1915157230772154e-02 9.2472525996760615e-03 0.0000000000000000e+00  -7.9095307553282035e-02 2.0400686627965715e-02 0.0000000000000000e+00  -5.4537629413436768e-02 -1.2271418620572849e+01 0.0000000000000000e+00  -2.5664637114887010e-02 -1.2771253715226100e+01 0.0000000000000000e+00  -9.4795229186180434e-03 -1.2265639646571973e+01 0.0000000000000000e+00  0.0000000000000000e+00 0.0000000000000000e+00 0.0000000000000000e+00  0.0000000000000000e+00 0.0000000000000000e+00 0.0000000000000000e+00  2.1644258862706111e-02 -1.2317262956163052e+01 0.0000000000000000e+00  4.6950076778027795e-02 -1.2807646299951099e+01 0.0000000000000000e+00  6.7526812212582166e-02 -1.2299215404555797e+01 0.0000000000000000e+00  1.0423879947518237e-01 2.5017018685240680e-03 0.0000000000000000e+00  1.0406056289459847e-01 -3.8277452731551517e-03 0.0000000000000000e+00  1.0229980378290018e-01 -1.0567352862395645e-02 0.0000000000000000e+00  6.6124961964365292e-02 1.1524756821016946e-01 0.0000000000000000e+00  3.1813172304109669e-02 1.1404257676303726e-01 0.0000000000000000e+00  1.0939154067737974e-03 1.1506828709739017e-01 0.0000000000000000e+00  -2.9319700004062327e-02 1.1474955770681361e-01 0.0000000000000000e+00  -6.4919121020536319e-02 1.1441627839822151e-01 0.0000000000000000e+00  -1.0520383959887358e-01 6.2878916168251364e-03 0.0000000000000000e+00  -1.0488739479641156e-01 1.2558619034939126e-02 0.0000000000000000e+00  -1.0292649002274638e-01 1.9150216215303533e-02 0.0000000000000000e+00  -7.2056429442998296e-02 -1.2324403552263604e+01 0.0000000000000000e+00  -3.6752495797580366e-02 -1.2817431497757573e+01 0.0000000000000000e+00  -1.3182189683686856e-02 -1.2311203403619993e+01 0.0000000000000000e+00  0.0000000000000000e+00 0.0000000000000000e+00 0.0000000000000000e+00  0.0000000000000000e+00 0.0000000000000000e+00 0.0000000000000000e+00  2.3162840369669913e-02 -1.2366588753470772e+01 0.0000000000000000e+00  5.0192324688649370e-02 -1.2856902280092461e+01 0.0000000000000000e+00  7.1788611972074257e-02 -1.2352989750308145e+01 0.0000000000000000e+00  1.1366284239569403e-01 -3.6348343799021739e-03 0.0000000000000000e+00  1.1446000665756818e-01 -4.9882388546791225e-03 0.0000000000000000e+00  1.1322576163596992e-01 -6.6664709534022728e-03 0.0000000000000000e+00  7.0696303349360584e-02 1.8110101815175542e-01 0.0000000000000000e+00  3.3865121913695423e-02 1.7619406503381937e-01 0.0000000000000000e+00  4.2005091610337718e-04 1.7625881621728437e-01 0.0000000000000000e+00  -3.2727295293632205e-02 1.7699788509649492e-01 0.0000000000000000e+00  -7.1870884994949064e-02 1.8025638029842184e-01 0.0000000000000000e+00  -1.1451235777944199e-01 1.2765264738526330e-02 0.0000000000000000e+00  -1.1520589649222629e-01 1.3895408340388887e-02 0.0000000000000000e+00  -1.1390132743589385e-01 1.5316654377984294e-02 0.0000000000000000e+00  -8.0126299255210282e-02 -1.2381780526381160e+01 0.0000000000000000e+00  -4.3544670809437427e-02 -1.2868051332559396e+01 0.0000000000000000e+00  -1.6405437701327328e-02 -1.2360517998762477e+01 0.0000000000000000e+00  -2.9257835481572784e-10 6.4202211823734476e-10 0.0000000000000000e+00  0.0000000000000000e+00 0.0000000000000000e+00 0.0000000000000000e+00  2.2439690050544515e-02 -1.2415744114295297e+01 0.0000000000000000e+00  4.8358531860637516e-02 -1.2906002891292635e+01 0.0000000000000000e+00  6.8316617133632990e-02 -1.2406358179842970e+01 0.0000000000000000e+00  1.1006984381201167e-01 -8.5983356038507874e-03 0.0000000000000000e+00  1.1152219050365311e-01 -4.7514884806100621e-03 0.0000000000000000e+00  1.1097266286138685e-01 -1.1495008641336146e-03 0.0000000000000000e+00  6.7667895247551638e-02 2.4826102815779685e-01 0.0000000000000000e+00  3.2349447986214759e-02 2.4000560365470730e-01 0.0000000000000000e+00  -1.1258633021753235e-04 2.3915666816877407e-01 0.0000000000000000e+00  -3.2344221765238650e-02 2.4094701544880595e-01 0.0000000000000000e+00  -7.0803643084929174e-02 2.4787353332358095e-01 0.0000000000000000e+00  -1.1073897934310165e-01 1.7924300330613586e-02 0.0000000000000000e+00  -1.1209012468135363e-01 1.3848750212436298e-02 0.0000000000000000e+00  -1.1144420133024584e-01 1.0037662489827643e-02 0.0000000000000000e+00  -7.7755340553592900e-02 -1.2436737031265848e+01 0.0000000000000000e+00  -4.4306533968160706e-02 -1.2917317084277219e+01 0.0000000000000000e+00  -1.7670602476438989e-02 -1.2408689668114247e+01 0.0000000000000000e+00  0.0000000000000000e+00 0.0000000000000000e+00 0.0000000000000000e+00  0.0000000000000000e+00 0.0000000000000000e+00 0.0000000000000000e+00  1.9561040691863665e-02 -1.2459215907102635e+01 0.0000000000000000e+00  4.1712955154457595e-02 -1.2949474414731718e+01 0.0000000000000000e+00  5.7621718838839688e-02 -1.2453424636061566e+01 0.0000000000000000e+00  9.4309691110828472e-02 -1.1961502614168605e-02 0.0000000000000000e+00  9.6161055442699248e-02 -3.3889325439444866e-03 0.0000000000000000e+00  9.6274222266098122e-02 4.9961602686589626e-03 0.0000000000000000e+00  5.7311035404029036e-02 3.1010187066544648e-01 0.0000000000000000e+00  2.7484010958911769e-02 2.9870706205787134e-01 0.0000000000000000e+00  -5.1203874620853402e-04 2.9691468833541085e-01 0.0000000000000000e+00  -2.8293842995764991e-02 2.9956742572520850e-01 0.0000000000000000e+00  -6.1949567135092747e-02 3.0993330018146886e-01 0.0000000000000000e+00  -9.4768649193726628e-02 2.1424820886013746e-02 0.0000000000000000e+00  -9.6506524730284426e-02 1.2647637354986856e-02 0.0000000000000000e+00  -9.6529964721226560e-02 4.0688171424366829e-03 0.0000000000000000e+00  -6.5839141242902383e-02 -1.2483402609859306e+01 0.0000000000000000e+00  -3.8894020460330907e-02 -1.2959669507045918e+01 0.0000000000000000e+00  -1.6330150868321430e-02 -1.2450475822111009e+01 0.0000000000000000e+00  0.0000000000000000e+00 0.0000000000000000e+00 0.0000000000000000e+00  0.0000000000000000e+00 0.0000000000000000e+00 0.0000000000000000e+00  1.4870598526929155e-02 -1.2492223380305880e+01 0.0000000000000000e+00  3.1068763266068177e-02 -1.2982575348593254e+01 0.0000000000000000e+00  4.1025892955613125e-02 -1.2489098773899533e+01 0.0000000000000000e+00  6.8409573232939669e-02 -1.3485258380485678e-02 0.0000000000000000e+00  7.0416938614721244e-02 -1.1705456592508267e-03 0.0000000000000000e+00  7.1149166149084023e-02 1.1019221241195238e-02 0.0000000000000000e+00  4.0828659792318790e-02 3.5981363312546583e-01 0.0000000000000000e+00  1.9761032031313717e-02 3.4594322042726028e-01 0.0000000000000000e+00  -7.8053438365993882e-04 3.4330626705522149e-01 0.0000000000000000e+00  -2.1105725225499146e-02 3.4656746425942092e-01 0.0000000000000000e+00  -4.6478839174920281e-02 3.5978933186855100e-01 0.0000000000000000e+00  -6.8670696721524732e-02 2.3038710530190729e-02 0.0000000000000000e+00  -7.0553063142735836e-02 1.0564823745918226e-02 0.0000000000000000e+00  -7.1192797822164630e-02 -1.7708290351005657e-03 0.0000000000000000e+00  -4.6185034881880797e-02 -1.2516899234660357e+01 0.0000000000000000e+00  -2.8197642441851779e-02 -1.2990558605973034e+01 0.0000000000000000e+00  -1.2449363583508797e-02 -1.2481315912040007e+01 0.0000000000000000e+00  0.0000000000000000e+00 0.0000000000000000e+00 0.0000000000000000e+00  0.0000000000000000e+00 0.0000000000000000e+00 0.0000000000000000e+00  8.9024396293881890e-03 -1.2511220520716170e+01 0.0000000000000000e+00  1.7639000630598319e-02 -1.3001779010318067e+01 0.0000000000000000e+00  2.0433012160989104e-02 -1.2509608668085116e+01 0.0000000000000000e+00  3.5280173336724757e-02 -1.3082695240748345e-02 0.0000000000000000e+00  3.7227291422224876e-02 1.6267211034145656e-03 0.0000000000000000e+00  3.8495261778771127e-02 1.6273262215888921e-02 0.0000000000000000e+00  2.0005969562973094e-02 3.9203562364146111e-01 0.0000000000000000e+00  9.9985461078105839e-03 3.7663476056603679e-01 0.0000000000000000e+00  -9.2997751203795058e-04 3.7336038497426083e-01 0.0000000000000000e+00  -1.1623728223738370e-02 3.7692444416824561e-01 0.0000000000000000e+00  -2.6163136904919605e-02 3.9212527006045178e-01 0.0000000000000000e+00  -3.5388583600935969e-02 2.2686028878894003e-02 0.0000000000000000e+00  -3.7203159384016575e-02 7.8819958801911744e-03 0.0000000000000000e+00  -3.8378417255967308