<?xml version="1.0"?>
<VTKFile type="UnstructuredGrid"  version="0.1"  >
<UnstructuredGrid>
<Piece  NumberOfPoints="589" NumberOfCells="1080">
<Points>
<DataArray  type="Float64"  NumberOfComponents="3"  format="ascii">-9 0 0  -8 0 0  -7 0 0  -6 0 0  -5 0 0  -4 0 0  -3 0 0  -2 0 0  -1 0 0  0 0 0  1 0 0  2 0 0  3 0 0  4 0 0  5 0 0  6 0 0  7 0 0  8 0 0  9 0 0  -9 2 0  -8.000007314211658 1.999988553195181 0  -7.00001535546755 1.999978556803602 0  -6.000025867119032 1.999971193466304 0  -5.000042861661347 1.999966996871653 0  -4.000024923314057 1.999975193952058 0  -3.000006507974419 1.999983189733468 0  -1.999997626187142 1.999990786823078 0  -0.9999963602978823 1.99999678938032 0  1.601504714230676e-07 1.999999393590969 0  0.9999963872042691 1.999997481689669 0  1.999996663521362 1.999991483101375 0  3.000003920265941 1.999984120016307 0  4.000019103723653 1.999976185133661 0  5.000041228934015 1.999972740733896 0  6.000025026861312 1.999973947353383 0  7.000014955579204 1.999979931179231 0  8.00000716183466 1.999989143398683 0  9 2 0  -9.000000000004983 4 0  -8.000011720089475 3.999971305494224 0  -7.000020829411108 3.999946581949292 0  -6.000025802601835 3.999929720268596 0  -5.000026963868773 3.99992443166333 0  -4.000000529849693 3.999928206590197 0  -2.999982869961426 3.999951030788338 0  -1.999978462655773 3.999980816298097 0  -0.9999855575528707 4.000004787604531 0  1.103199983080333e-06 4.00001436748468 0  0.9999875210164066 4.000006556749627 0  1.999979618435396 3.999985733617343 0  2.999983340385669 3.999957541019709 0  4.000000522269574 3.999929045275744 0  5.00002684373933 3.999919039942882 0  6.000025530377527 3.9999287864369 0  7.000020800776631 3.999946949666272 0  8.000011795675418 3.999971710179738 0  9 4 0  -9 6 0  -8.000026568076269 5.999938177750146 0  -7.000042847804206 5.999883163170208 0  -6.000040985728528 5.999841958208235 0  -5.000018720283775 5.999821286275798 0  -3.999966690037113 5.999855138770196 0  -2.999943102045817 5.999926187864904 0  -1.999952604887679 6.000000742934463 0  -0.9999761642402611 6.000042235561341 0  -8.73381737864018e-08 6.000050466033024 0  0.9999783089919921 6.000036757028534 0  1.999961779263427 5.999998976971616 0  2.999955547064575 5.99993513566294 0  3.999967986926965 5.999868792556238 0  5.000012937497628 5.999835525260595 0  6.000039698796191 5.999849961964682 0  7.000043746867381 5.999887582920852 0  8.000027590197346 5.999940163448056 0  9 6 0  -9 8 0  -8.000082558685309 7.999877836470861 0  -7.000137426597743 7.999764525006466 0  -6.00013777813336 7.999672082995604 0  -5.000060643177087 7.999620308301121 0  -3.99995973669005 7.999777368875293 0  -2.999978110500084 7.999962070571114 0  -2.000015846113311 8.000052281423839 0  -1.000019105909642 8.000062808641248 0  3.303761286621617e-06 8.000065927413857 0  1.000019874193922 8.000075094800829 0  2.000012487127713 8.000036762459361 0  2.999967827130119 7.999971614410625 0  3.999952490242234 7.999810457019041 0  5.000052636868864 7.999628573908922 0  6.000144706248387 7.999678427382375 0  7.000147495824727 7.999768398536458 0  8.000089104961731 7.999879608252151 0  9 8 0  -9 10 0  -8.000249222944333 9.999782159007221 0  -7.000449973480436 9.999562520667785 0  -6.000544424107753 9.99933972300755 0  -5.000452012366116 9.999113443086411 0  -4.000292074295189 9.999620620664652 0  -3.000317831431433 10.00005683016065 0  -2.00025286375102 9.999982392550468 0  -1.000112401975196 9.999958496538305 0  -8.657956766423063e-06 9.999952642839188 0  1.000094499558596 9.999953001852219 0  2.000232307060215 9.999949896871735 0  3.00035295443216 10.00010882496363 0  4.000336897482519 9.999687996323823 0  5.000521473625509 9.999132613979699 0  6.000606635834184 9.999346574607927 0  7.000495841776888 9.999564345230741 0  8.000273394321615 9.999782379036064 0  9 10 0  -9 12 0  -8.000609362306697 11.99969382484321 0  -7.001187042405651 11.9993734134173 0  -6.001697209287557 11.99902174553079 0  -5.002095350633728 11.99861510226291 0  -4.002013521763905 11.999539664174 0  -3.002086878400739 12.00045486175682 0  -2.001422217709298 12.00034579408646 0  -1.00068428043035 12.00028765370674 0  8.092969753571053e-05 12.0002779974696 0  1.000852684407138 12.00031889292772 0  2.001613182759594 12.00042174227876 0  3.002327094758172 12.00061492211776 0  4.002246033035817 11.99960277278022 0  5.002300225408621 11.99858208544819 0  6.001851414231839 11.99899983510212 0  7.001290312318938 11.99935945600326 0  8.0006611717955 11.99968693553687 0  9 12 0  -9 14 0  -8.001095375393808 13.99966260972954 0  -7.00219279410044 13.99930963330776 0  -6.003295751144816 13.99892410995975 0  -5.004411446744092 13.99848638071576 0  -4.004423051488412 13.99956629391056 0  -3.004429135777391 14.00065975353343 0  -2.002886295177189 14.00050580760413 0  -1.00136593972515 14.00042315909215 0  0.0001445823006061438 14.00040141062226 0  1.001657214038954 14.00043729853187 0  2.003182873833048 14.00053274227986 0  3.004729884207693 14.00069288159373 0  4.004740620919395 13.99956302975415 0  5.004748775563331 13.9984399514965 0  6.003543208792967 13.99888631415281 0  7.002355678559008 13.99928355363395 0  8.001176288524869 13.99964938356257 0  9 14 0  -9 16 0  -8.00157204946705 15.999693855036 0  -7.003174470139816 15.9993762865792 0  -6.004840241503199 15.99903566814557 0  -5.00660764881892 15.99866014648582 0  -4.006671009677778 15.99957938134632 0  -3.006610702143125 16.00049362825565 0  -2.004263474562503 16.00038158153325 0  -1.002009576842739 16.00031583195712 0  0.0001998906126860116 16.0002949745512 0  1.002411115314756 16.00031816920025 0  2.004670251235465 16.00038565007823 0  3.007026360617672 16.00049849164273 0  4.007092996987352 15.99953362866342 0  5.007034798255914 15.9985679303207 0  6.005159216444291 15.99896977164478 0  7.003386273784881 15.99933362919599 0  8.001677677709257 15.99967286500802 0  9 16 0  -9 18 0  -8.001926006983421 17.99977082488803 0  -7.003900539732835 17.99953526303621 0  -6.005974637263208 17.99928703850309 0  -5.008204334367178 17.99902011959166 0  -4.008300108470885 17.99958201626887 0  -3.008207263442229 18.00014306083094 0  -2.00527124977995 18.00007296012244 0  -1.002477306759664 18.00002975484338 0  0.0002481401313795893 18.00001314112136 0  1.002975101628815 18.00002269000471 0  2.005773491252938 18.0000578792108 0  3.008716552226025 18.00011795773704 0  4.008814540841354 17.9995116765225 0  5.008721318465888 17.99890701143529 0  6.00636049133348 17.99920547936822 0  7.004156854676518 17.99948238636875 0  8.002053887333448 17.9997448220186 0  9 18 0  -9 20 0  -8.002084722227158 19.99987332362214 0  -7.004226089304132 19.99974492238577 0  -6.006482909053768 19.99961325765251 0  -5.008918315104018 19.99947715500442 0  -4.009027674564037 19.99958162990004 0  -3.008919118275867 19.99968514757225 0  -2.005715185761067 19.99965734245296 0  -1.002673143459903 19.99963790753789 0  0.0002902777160772336 19.99962726123915 0  1.003255342464257 19.99962523544049 0  2.006302298246861 19.9996310961135 0  3.009514376940014 19.99964349122783 0  4.009625469347191 19.99950079861543 0  5.009516009572677 19.99935917111683 0  6.00692869406776 19.99952752366445 0  7.004522099968894 19.99968907476553 0  8.002232375405731 19.9998457918512 0  8.999999999980778 19.99999999999385 0  -9 22 0  -8.002015799401423 21.99998270225025 0  -7.004087570487648 21.99996763474035 0  -6.006273050777718 21.99995723918114 0  -5.008633492076294 21.99995438521856 0  -4.008740583965786 21.99957687974981 0  -3.008633828917152 21.99919829447517 0  -2.005516086487012 21.9992084423411 0  -1.002556617900027 21.9992111231465 0  0.0003258590965014053 21.99920711763955 0  1.003210176011826 21.99919643851313 0  2.00617517228645 21.99917834492259 0  3.009302157704612 21.99915132813991 0  4.009409554066312 21.99949739710123 0  5.009299842203816 21.99984400037199 0  6.006769859947103 21.99987676123343 0  7.004417369953476 21.99991507686061 0  8.002180274030211 21.99995675144642 0  9 22 0  -9 24 0  -8.001721891511762 24.00008316409201 0  -7.003491892657615 24.00017166362347 0  -6.005359483452868 24.00027105352559 0  -5.007376788828446 24.00038734341537 0  -4.007469056138749 23.99956791583765 0  -3.007377916119261 23.99874748230946 0  -2.004688304787074 23.99878923652211 0  -1.00213415613028 23.99881092095113 0  0.0003541991996517664 23.99881350490547 0  1.002844572078872 23.99879712470433 0  2.005404792987051 23.99876108793273 0  3.008104592442641 23.99870386761636 0  4.008194823827137 23.99949946729989 0  5.008098055521209 24.00029529240698 0  6.005897081980834 24.00020374859541 0  7.003848695875872 24.0001276184824 0  8.001899808449291 24.00006138929282 0  9 24 0  -9 26 0  -8.001234283243699 26.00016231023631 0  -7.002503372114845 26.00033215040506 0  -6.003843046829687 26.00051727480518 0  -5.005290833457383 26.00072590377406 0  -4.005358668285223 25.9995552541948 0  -3.005293573744416 25.99838378739825 0  -2.003322937870568 25.99844990642377 0  -1.001450452411077 25.9984867212365 0  0.0003746554071484326 25.99849534557528 0  1.002201899850427 25.99847602451307 0  2.004080817836363 25.99842813562348 0  3.006062249620161 25.99835018629356 0  4.006125298610521 25.99950514755635 0  5.006051586910516 26.00066010980152 0  6.004410020366537 26.00046907330889 0  7.002879644012223 26.00030056017621 0  8.001421899590657 26.00014667800101 0  9 26 0  -9 28 0  -8.000605978963549 28.00021136560813 0  -7.001229829507292 28.00043152132058 0  -6.001889979568062 28.00066948628618 0  -5.002605689733431 28.000934745342 0  -4.002642492197401 27.99954003450652 0  -3.002610286765253 27.9981448328585 0  -2.001569154576643 27.99822736829558 0  -1.000579133511247 27.9982748536783 0  0.000386751506968941 27.99828853128197 0  1.001354822136662 27.9982687499652 0  2.002351419708436 27.99821496586026 0  3.003403579353477 27.99812574074351 0  4.003433023637237 27.99951314650799 0  5.003389512827808 28.00090046572665 0  6.002474163752924 28.00064432467905 0  7.001617534278692 28.00041500703788 0  8.00
[...]
<PointData  Vectors="f_44-0"> 
<DataArray  type="Float64"  Name="f_44-0"  NumberOfComponents="3" format="ascii">0.0000000000000000e+00 0.0000000000000000e+00 0.0000000000000000e+00  5.7600674239738643e-07 -1.0261806731910097e+01 0.0000000000000000e+00  4.8755618963036404e-07 -1.0377677683371390e+01 0.0000000000000000e+00  7.3668296889519569e-07 -9.8444184617925163e+00 0.0000000000000000e+00  0.0000000000000000e+00 0.0000000000000000e+00 0.0000000000000000e+00  0.0000000000000000e+00 0.0000000000000000e+00 0.0000000000000000e+00  0.0000000000000000e+00 0.0000000000000000e+00 0.0000000000000000e+00  0.0000000000000000e+00 0.0000000000000000e+00 0.0000000000000000e+00  0.0000000000000000e+00 0.0000000000000000e+00 0.0000000000000000e+00  0.0000000000000000e+00 0.0000000000000000e+00 0.0000000000000000e+00  0.0000000000000000e+00 0.0000000000000000e+00 0.0000000000000000e+00  0.0000000000000000e+00 0.0000000000000000e+00 0.0000000000000000e+00  0.0000000000000000e+00 0.0000000000000000e+00 0.0000000000000000e+00  0.0000000000000000e+00 0.0000000000000000e+00 0.0000000000000000e+00  0.0000000000000000e+00 0.0000000000000000e+00 0.0000000000000000e+00  5.8855349541505063e-07 -1.0275551879245212e+01 0.0000000000000000e+00  4.9469167315148599e-07 -1.0391692581280253e+01 0.0000000000000000e+00  7.4524138079827831e-07 -9.8576714184221839e+00 0.0000000000000000e+00  0.0000000000000000e+00 0.0000000000000000e+00 0.0000000000000000e+00  0.0000000000000000e+00 0.0000000000000000e+00 0.0000000000000000e+00  -5.3364441636396559e-02 -1.0001193303056420e+01 0.0000000000000000e+00  -7.2737517948748770e-03 -1.0396601274176518e+01 0.0000000000000000e+00  2.4316092623170363e-02 -9.9986714674435273e+00 0.0000000000000000e+00  2.0025549798169959e-03 -2.2361231951815270e-04 0.0000000000000000e+00  2.0206224683988246e-03 -8.4399096187670348e-04 0.0000000000000000e+00  1.0789991207670565e-03 -4.5055014422337437e-04 0.0000000000000000e+00  7.6724391505404623e-04 2.2484493617309410e-04 0.0000000000000000e+00  4.4003127549884359e-04 5.8078920638159949e-04 0.0000000000000000e+00  2.0151145568524835e-04 4.5705043867792913e-04 0.0000000000000000e+00  -4.4271676312401302e-05 3.2046820397223237e-05 0.0000000000000000e+00  -2.5450275071785521e-04 -4.9458787439559196e-04 0.0000000000000000e+00  -6.1303914314029520e-04 -1.3089879260821194e-03 0.0000000000000000e+00  -1.1725645490467899e-03 -1.4699006365189496e-03 0.0000000000000000e+00  -2.0843499691096793e-03 -2.6448554153632262e-03 0.0000000000000000e+00  -5.4909575512690739e-02 -1.0015549114559823e+01 0.0000000000000000e+00  -7.5730591556738532e-03 -1.0411056520268870e+01 0.0000000000000000e+00  2.3481860430047630e-02 -1.0013370355570693e+01 0.0000000000000000e+00  0.0000000000000000e+00 0.0000000000000000e+00 0.0000000000000000e+00  0.0000000000000000e+00 0.0000000000000000e+00 0.0000000000000000e+00  2.2347039453975868e-03 -9.9961742400967015e+00 0.0000000000000000e+00  -2.0478418913717985e-02 -1.0367177104479582e+01 0.0000000000000000e+00  4.8596711885019071e-03 -1.0000563314899141e+01 0.0000000000000000e+00  -1.2283408782804920e-03 -1.6019518455885186e-03 0.0000000000000000e+00  -2.7717713583504337e-05 6.1376147732702230e-04 0.0000000000000000e+00  1.5288050956685346e-04 2.2309357885729759e-03 0.0000000000000000e+00  2.0082598944705496e-06 2.1261217884528546e-03 0.0000000000000000e+00  -4.3914844350246982e-04 8.6803591545666736e-04 0.0000000000000000e+00  -5.2731251028847179e-04 -2.0313325845266897e-04 0.0000000000000000e+00  -2.9791028434223945e-04 -3.0287105093956400e-04 0.0000000000000000e+00  5.4804844938550307e-04 -8.1856473438748933e-04 0.0000000000000000e+00  6.6174424649037566e-04 -1.3597563473364679e-03 0.0000000000000000e+00  1.8072520534245800e-04 -3.6168957641888327e-04 0.0000000000000000e+00  -4.6832946337193080e-04 6.8868672692412537e-04 0.0000000000000000e+00  1.2731532112375970e-03 -1.0009231345267306e+01 0.0000000000000000e+00  -2.1491365886256896e-02 -1.0379158943240446e+01 0.0000000000000000e+00  3.0092956157996443e-03 -1.0012539655710619e+01 0.0000000000000000e+00  0.0000000000000000e+00 0.0000000000000000e+00 0.0000000000000000e+00  0.0000000000000000e+00 0.0000000000000000e+00 0.0000000000000000e+00  1.1623209620736229e-02 -9.9981683397325067e+00 0.0000000000000000e+00  -4.0863075472296210e-03 -1.0356394939484748e+01 0.0000000000000000e+00  6.8814390466048316e-03 -9.9864885270352755e+00 0.0000000000000000e+00  -3.1479908391610343e-03 3.4236584621318050e-03 0.0000000000000000e+00  -1.8752916491416379e-03 6.1550576038331660e-03 0.0000000000000000e+00  -1.9395984829926602e-03 4.7465643044237935e-03 0.0000000000000000e+00  -2.9332043512514303e-03 -7.8561179090344253e-04 0.0000000000000000e+00  -1.7490387224819743e-03 -3.3484199658215829e-03 0.0000000000000000e+00  -1.3671117440804391e-04 -1.8737843308813912e-03 0.0000000000000000e+00  1.1365072391978353e-03 -9.3192078481239111e-04 0.0000000000000000e+00  1.0182492077652587e-03 -4.5346771370118462e-04 0.0000000000000000e+00  1.6686541506618477e-03 4.5771555486115608e-04 0.0000000000000000e+00  2.3886571692206988e-03 -1.6913212715714209e-03 0.0000000000000000e+00  4.0617348701085180e-04 -4.2341667384117095e-03 0.0000000000000000e+00  1.2786702802591065e-02 -1.0009908074068303e+01 0.0000000000000000e+00  -6.3914759045545300e-03 -1.0370916076357863e+01 0.0000000000000000e+00  2.4032038875340792e-03 -1.0004936040207621e+01 0.0000000000000000e+00  0.0000000000000000e+00 0.0000000000000000e+00 0.0000000000000000e+00  0.0000000000000000e+00 0.0000000000000000e+00 0.0000000000000000e+00  1.2806013520090542e-02 -1.0003197260653209e+01 0.0000000000000000e+00  6.3994999075051050e-04 -1.0366553733967073e+01 0.0000000000000000e+00  9.3939123898874825e-03 -1.0006798017340142e+01 0.0000000000000000e+00  -1.2386077239750952e-02 2.5154428270985480e-04 0.0000000000000000e+00  -1.5186200098748969e-02 4.5790699428469072e-03 0.0000000000000000e+00  -5.1857959985927233e-03 -5.1625887111510530e-03 0.0000000000000000e+00  -4.5938428234185780e-03 -1.1168798300802626e-02 0.0000000000000000e+00  7.7942007116049868e-04 -6.2473421445958842e-03 0.0000000000000000e+00  2.2831550649007122e-03 -5.4240736925415516e-03 0.0000000000000000e+00  5.2844790467840644e-03 -1.0686157220128568e-02 0.0000000000000000e+00  4.9545414247560791e-03 -1.8841410772420723e-03 0.0000000000000000e+00  1.9203602705637778e-02 -6.2511419307658515e-03 0.0000000000000000e+00  2.0811698319649321e-02 -1.5168313297275686e-02 0.0000000000000000e+00  1.2408811090874512e-02 -1.2683149643052505e-02 0.0000000000000000e+00  1.1788073830295126e-02 -1.0010487725816652e+01 0.0000000000000000e+00  6.6296948267413993e-04 -1.0368103390075897e+01 0.0000000000000000e+00  6.7415830442306528e-03 -1.0001420748270773e+01 0.0000000000000000e+00  0.0000000000000000e+00 0.0000000000000000e+00 0.0000000000000000e+00  0.0000000000000000e+00 0.0000000000000000e+00 0.0000000000000000e+00  1.2350331903349896e-02 -1.0000355448581461e+01 0.0000000000000000e+00  -8.8890463954062102e-04 -1.0357965746943442e+01 0.0000000000000000e+00  5.8405945037777489e-03 -9.9855224789891075e+00 0.0000000000000000e+00  -5.4009825969613956e-02 2.7090472112065986e-02 0.0000000000000000e+00  -4.2147533757985113e-02 1.6991580226007625e-02 0.0000000000000000e+00  -2.1685204989680750e-02 8.4410576687024841e-03 0.0000000000000000e+00  3.4114841883126287e-03 -1.9606070485606360e-02 0.0000000000000000e+00  2.7083153337186493e-03 -7.4678294342128606e-03 0.0000000000000000e+00  5.2662054494644738e-03 -5.2364579384084949e-03 0.0000000000000000e+00  7.5063472151456921e-03 -5.6661277881931938e-03 0.0000000000000000e+00  5.8491447424884532e-03 -6.3116594492569301e-03 0.0000000000000000e+00  3.6701094247152892e-02 -1.1736456597166817e-02 0.0000000000000000e+00  4.5483585193971506e-02 -1.8671143890839560e-02 0.0000000000000000e+00  4.6087348804159566e-02 -1.9052915066980442e-02 0.0000000000000000e+00  1.9320450015764375e-02 -1.0001782932815406e+01 0.0000000000000000e+00  9.6495364574601206e-04 -1.0363655381242006e+01 0.0000000000000000e+00  8.0688457394530195e-03 -9.9994320370479102e+00 0.0000000000000000e+00  0.0000000000000000e+00 0.0000000000000000e+00 0.0000000000000000e+00  0.0000000000000000e+00 0.0000000000000000e+00 0.0000000000000000e+00  1.4673789388565591e-02 -1.0001556844452557e+01 0.0000000000000000e+00  4.8099885816969921e-03 -1.0357899869512154e+01 0.0000000000000000e+00  1.3819583557418497e-02 -9.9882061298282192e+00 0.0000000000000000e+00  -1.6266974587995555e-02 2.2116495362839540e-02 0.0000000000000000e+00  -2.6825233798488016e-02 1.9688639304354407e-02 0.0000000000000000e+00  -4.0876357956844286e-02 2.9943828473458479e-02 0.0000000000000000e+00  -1.6283646027155856e-02 -2.2774468299084510e-02 0.0000000000000000e+00  -5.7106009591904707e-03 -2.1023866741110744e-02 0.0000000000000000e+00  1.5613848328798487e-03 -1.7873599156620238e-02 0.0000000000000000e+00  5.5548817647066541e-03 -1.9429475878562631e-02 0.0000000000000000e+00  4.4091924722992209e-04 -2.7155072950177661e-02 0.0000000000000000e+00  7.4378110607170259e-03 -2.0273213136354863e-02 0.0000000000000000e+00  2.1834970251688502e-02 -1.1162559746911941e-02 0.0000000000000000e+00  3.3045934934213629e-02 5.3432439386153436e-03 0.0000000000000000e+00  1.9823793475673198e-02 -1.0003735082883221e+01 0.0000000000000000e+00  -3.8285953289972168e-03 -1.0368000854094785e+01 0.0000000000000000e+00  6.1617608786332231e-03 -1.0003373012768408e+01 0.0000000000000000e+00  0.0000000000000000e+00 0.0000000000000000e+00 0.0000000000000000e+00  0.0000000000000000e+00 0.0000000000000000e+00 0.0000000000000000e+00  1.7759948112719911e-02 -1.0009530805944612e+01 0.0000000000000000e+00  1.1693444707926439e-02 -1.0365256935533484e+01 0.0000000000000000e+00  2.4219669333061786e-02 -9.9955434336846345e+00 0.0000000000000000e+00  2.9206275580920468e-02 9.3801545030658042e-03 0.0000000000000000e+00  2.2929586800749080e-02 1.4394329873849568e-03 0.0000000000000000e+00  1.9507572804403191e-02 -1.4651121615995971e-02 0.0000000000000000e+00  1.8387418291418031e-02 -2.2868380042950848e-02 0.0000000000000000e+00  9.5574535917678470e-03 -1.8767820130753433e-02 0.0000000000000000e+00  2.8395063276773326e-03 -1.6259925135010705e-02 0.0000000000000000e+00  -2.6304798017505000e-03 -1.6807288345334875e-02 0.0000000000000000e+00  -8.6921503315769803e-03 -1.8803783761927404e-02 0.0000000000000000e+00  -2.7602689144843824e-02 -4.2143584017702409e-03 0.0000000000000000e+00  -2.1428629221800444e-02 3.6755352162833404e-03 0.0000000000000000e+00  -1.8008309476426624e-02 8.3990769709965558e-03 0.0000000000000000e+00  -9.3853227738248586e-04 -1.0016772972878636e+01 0.0000000000000000e+00  -8.1804938575775563e-03 -1.0380076982936760e+01 0.0000000000000000e+00  3.5597926555869909e-03 -1.0015231212124920e+01 0.0000000000000000e+00  0.0000000000000000e+00 0.0000000000000000e+00 0.0000000000000000e+00  0.0000000000000000e+00 0.0000000000000000e+00 0.0000000000000000e+00  2.0455008820079241e-02 -1.0024046100122646e+01 0.0000000000000000e+00  1.7482621537396891e-02 -1.0379699877891062e+01 0.0000000000000000e+00  3.3469415995238082e-02 -1.0011672445745713e+01 0.0000000000000000e+00  5.9284448685855612e-02 -3.5353699537538190e-03 0.0000000000000000e+00  5.4705944989862837e-02 -1.0077514852632542e-02 0.0000000000000000e+00  4.9573822698866198e-02 -1.5964454332224935e-02 0.0000000000000000e+00  2.5316038769396053e-02 4.3466234691317087e-04 0.0000000000000000e+00  1.3090914538340940e-02 -1.7342672744826235e-03 0.0000000000000000e+00  3.0696454157457713e-03 -1.5050139610196288e-03 0.0000000000000000e+00  -6.6035551005492413e-03 -2.1029560348196593e-03 0.0000000000000000e+00  -2.0757024529235502e-02 -2.5362126661425989e-03 0.0000000000000000e+00  -5.8596583476218975e-02 7.2882805097791731e-03 0.0000000000000000e+00  -5.4499880515754183e-02 1.2608530382060624e-02 0.0000000000000000e+00  -4.9520404489859525e-02 1.9922220807416846e-02 0.0000000000000000e+00  -1.8265516160434390e-02 -1.0038049402343646e+01 0.0000000000000000e+00  -1.5797341802638538e-02 -1.0398465585800446e+01 0.0000000000000000e+00  1.4435073383766595e-03 -1.0033057996872168e+01 0.0000000000000000e+00  0.0000000000000000e+00 0.0000000000000000e+00 0.0000000000000000e+00  0.0000000000000000e+00 0.0000000000000000e+00 0.0000000000000000e+00  2.2045078215239267e-02 -1.0042816328516915e+01 0.0000000000000000e+00  2.0745975188201541e-02 -1.0398599553360510e+01 0.0000000000000000e+00  3.8621215718933066e-02 -1.0032559362988620e+01 0.0000000000000000e+00  7.7586856593029510e-02 -1.2307411468779637e-02 0.0000000000000000e+00  7.5358579035447917e-02 -1.5574725098229976e-02 0.0000000000000000e+00  7.3073189638213298e-02 -1.9770816507974541e-02 0.0000000000000000e+00  3.2598684111459171e-02 2.0174721086586529e-02 0.0000000000000000e+00  1.5514156340239345e-02 1.9199530945425133e-02 0.0000000000000000e+00  2.5512356621256384e-03 1.9597421609027835e-02 0.0000000000000000e+00  -1.0322270046705332e-02 1.9343944451845275e-02 0.0000000000000000e+00  -2.8868531514006222e-02 2.0053000355762907e-02 0.0000000000000000e+00  -7.6372668660475526e-02 1.6151843800064871e-02 0.0000000000000000e+00  -7.4046257822123290e-02 1.9271689081554761e-02 0.0000000000000000e+00  -7.1570704326550452e-02 2.3127267178477962e-02 0.0000000000000000e+00  -2.8354049914341303e-02 -1.0061785229145272e+01 0.0000000000000000e+00  -2.0700553036691913e-02 -1.0418849830612608e+01 0.0000000000000000e+00  -1.3540703695206826e-04 -1.0053103641875007e+01 0.0000000000000000e+00  0.0000000000000000e+00 0.0000000000000000e+00 0.0000000000000000e+00  0.0000000000000000e+00 0.0000000000000000e+00 0.0000000000000000e+00  2.2312785110281654e-02 -1.0062945447805411e+01 0.0000000000000000e+00  2.1173305063048920e-02 -1.0418903017339927e+01 0.0000000000000000e+00  3.9519521697304036e-02 -1.0054798490086265e+01 0.0000000000000000e+00  8.4576952197446278e-02 -1.7596288713341134e-02 0.0000000000000000e+00  8.4253216506145839e-02 -1.8230641854237707e-02 0.0000000000000000e+00  8.3435874402019647e-02 -1.9603512870096752e-02 0.0000000000000000e+00  3.4791538694687756e-02 4.6471484782737008e-02 0.0000000000000000e+00  1.6087761982451456e-02 4.4128182619507447e-02 0.0000000000000000e+00  1.8293355834405763e-03 4.4226481731778268e-02 0.0000000000000000e+00  -1.2254679334847069e-02 4.4396048647168729e-02 0.0000000000000000e+00  -3.2456591964643004e-02 4.6560503718636272e-02 0.0000000000000000e+00  -8.2643860260244645e-02 2.1568440977474762e-02 0.0000000000000000e+00  -8.2295698674848636e-02 2.1793325779927927e-02 0.0000000000000000e+00  -8.1545200232251439e-02 2.2674783494686129e-02 0.0000000000000000e+00  -3.2053708782669409e-02 -1.0085000041966074e+01 0.0000000000000000e+00  -2.2627697224447386e-02 -1.0439039517381726e+01 0.0000000000000000e+00  -7.5274826953385056e-04 -1.0072740693193820e+01 0.0000000000000000e+00  3.9051098883337951e-10 1.8293483096808314e-10 0.0000000000000000e+00  0.0000000000000000e+00 0.0000000000000000e+00 0.0000000000000000e+00  2.1324953058014760e-02 -1.0081721052549312e+01 0.0000000000000000e+00  1.9021623324949565e-02 -1.0437906065248857e+01 0.0000000000000000e+00  3.6625558264169800e-02 -1.0075581864988536e+01 0.0000000000000000e+00  8.1085787691378572e-02 -1.9868834951914074e-02 0.0000000000000000e+00  8.2250119473428820e-02 -1.7873570873289290e-02 0.0000000000000000e+00  8.2935418893412174e-02 -1.6436655887035450e-02 0.0000000000000000e+00  3.3144410589574846e-02 7.3154619235300131e-02 0.0000000000000000e+00  1.5052315234184162e-02 6.9737094932427315e-02 0.0000000000000000e+00  1.2322968279251309e-03 6.9568063787144460e-02 0.0000000000000000e+00  -1.2391054273533958e-02 7.0143830304004576e-02 0.0000000000000000e+00  -3.1949163586958762e-02 7.3626231913995713e-02 0.0000000000000000e+00  -7.8514176812656197e-02 2.3791555062250797e-02 0.0000000000000000e+00  -7.9663358609142532e-02 2.1423026532012886e-02 0.0000000000000000e+00  -8.0337006601070043e-02 1.9641096285459403e-02 0.0000000000000000e+00  -2.9228588470618575e-02 -1.0104533579575614e+01 0.0000000000000000e+00  -2.1224760163320529e-02 -1.0456266371442906e+01 0.0000000000000000e+00  -8.8543293295730363e-05 -1.0089678760131244e+01 0.0000000000000000e+00  0.0000000000000000e+00 0.0000000000000000e+00 0.0000000000000000e+00  0.0000000000000000e+00 0.0000000000000000e+00 0.0000000000000000e+00  1.9285232691469902e-02 -1.0096889712595770e+01 0.0000000000000000e+00  1.4772922255019643e-02 -1.0453368289367029e+01 0.0000000000000000e+00  3.0646025613787656e-02 -1.0092542039496085e+01 0.0000000000000000e+00  6.8610255630978778e-02 -1.9366886335778603e-02 0.0000000000000000e+00  7.0931254042671976e-02 -1.5096012524063522e-02 0.0000000000000000e+00  7.2814247085173728e-02 -1.1252257974087956e-02 0.0000000000000000e+00  2.8050832292390769e-02 9.7674998228980861e-02 0.0000000000000000e+00  1.2678960265533083e-02 9.3185154589883676e-02 0.0000000000000000e+00  7.8167840063677230e-04 9.2740778592354300e-02 0.0000000000000000e+00  -1.0867979969056035e-02 9.3615961907229053e-02 0.0000000000000000e+00  -2.7702288782893891e-02 9.8244071985381098e-02 0.0000000000000000e+00  -6.5484535140979308e-02 2.3235309283774711e-02 0.0000000000000000e+00  -6.7768053410782680e-02 1.8657328067292853e-02 0.0000000000000000e+00  -6.9637501476543281e-02 1.4513851489139872e-02 0.0000000000000000e+00  -2.1115772677318765e-02 -1.0118282446924049e+01 0.0000000000000000e+00  -1.6861595096548679e-02 -1.0468481255842994e+01 0.0000000000000000e+00  1.8490975411895364e-03 -1.0101919350751263e+01 0.0000000000000000e+00  0.0000000000000000e+00 0.0000000000000000e+00 0.0000000000000000e+00  0.0000000000000000e+00 0.0000000000000000e+00 0.0000000000000000e+00  1.6480415268340116e-02 -1.0106802695927112e+01 0.0000000000000000e+00  9.0455578263024354e-03 -1.0463638726383889e+01 0.0000000000000000e+00  2.2479170743896451e-02 -1.0103913636296189e+01 0.0000000000000000e+00  4.9098848933139642e-02 -1.6493195170754298e-02 0.0000000000000000e+00  5.2218904282419668e-02 -1.0483569133103379e-02 0.0000000000000000e+00  5.5007581920343447e-02 -4.7584618464845529e-03 0.0000000000000000e+00  2.0182066634008480e-02 1.1735157841615555e-01 0.0000000000000000e+00  9.2042450959541628e-03 1.1197482688185606e-01 0.0000000000000000e+00  4.7432376909574008e-04 1.1126204342649772e-01 0.0000000000000000e+00  -7.9681928987903102e-03 1.1232089791455610e-01 0.0000000000000000e+00  -2.0414151858984240e-02 1.1783723276748831e-01 0.0000000000000000e+00  -4.5537694330547523e-02 2.0314336111220580e-02 0.0000000000000000e+00  -4.8596930379728731e-02 1.4081294475196328e-02 0.0000000000000000e+00  -5.1354956805950133e-02 8.1440988295768523e-03 0.0000000000000000e+00  -9.1619252559225536e-03 -1.0124861535093599e+01 0.0000000000000000e+00  -1.0305735314255507e-02 -1.0474356970978704e+01 0.0000000000000000e+00  4.8029308889351273e-03 -1.0108099986491728e+01 0.0000000000000000e+00  0.0000000000000000e+00 0.0000000000000000e+00 0.0000000000000000e+00  0.0000000000000000e+00 0.0000000000000000e+00 0.0000000000000000e+00  1.3246709288137933e-02 -1.0110502071863912e+01 0.0000000000000000e+00  2.5350515720997842e-03 -1.0467740257673805e+01 0.0000000000000000e+00  1.3129933125227446e-02 -1.0108635689880055e+01 0.0000000000000000e+00  2.4811702077074668e-02 -1.1719237642755629e-02 0.0000000000000000e+00  2.8375829600493709e-02 -4.6292318170552404e-03 0.0000000000000000e+00  3.1755683832013666e-02 2.3178714400631135e-03 0.0000000000000000e+00  1.0399039038481744e-02 1.3010253906209993e-01 0.0000000000000000e+00  4.9762217048984229e-03 1.2413558792493788e-01 0.0000000000000000e+00  2.9550599073833170e-04 1.2320257544300892e-01 0.0000000000000000e+00  -4.0718424314199414e-03 1.2432516158215086e-01 0.0000000000000000e+00  -1.0958538321272058e-02 1.3040292676928264e-01 0.0000000000000000e+00  -2.0964337250114724e-02 1.5509655016948362e-02 0.0000000000000000e+00  -2.4445914780250686e-02 8.2987279499887809e-03 0.0000000000000000e+00  -2.7783964326857376e-02 1.23706