<?xml version="1.0"?>
<VTKFile type="UnstructuredGrid"  version="0.1"  >
<UnstructuredGrid>
<Piece  NumberOfPoints="589" NumberOfCells="1080">
<Points>
<DataArray  type="Float64"  NumberOfComponents="3"  format="ascii">-9 0 0  -8 0 0  -7 0 0  -6 0 0  -5 0 0  -4 0 0  -3 0 0  -2 0 0  -1 0 0  0 0 0  1 0 0  2 0 0  3 0 0  4 0 0  5 0 0  6 0 0  7 0 0  8 0 0  9 0 0  -9 2 0  -8.000005082271716 1.999992407975902 0  -7.000010643946631 1.99998575487563 0  -6.000017831499472 1.999980803729489 0  -5.000029282126923 1.999977891565291 0  -4.000017339359835 1.999983488499768 0  -3.000005084901788 1.999988806727338 0  -1.999999120725718 1.999993804512346 0  -0.999998147966929 1.999997759684308 0  -2.992692750539084e-07 1.999999510798951 0  0.9999973052153504 1.999998352651136 0  1.999997455470381 1.999994582764484 0  3.000002014783457 1.999989977907626 0  4.000011533752451 1.999985115175839 0  5.000025298178004 1.99998333028472 0  6.000015189719825 1.999983901300563 0  7.000009014636855 1.999987533145324 0  8.000004303520127 1.999993238189094 0  9 2 0  -9 4 0  -8.000008246852223 3.999981060582299 0  -7.000014784395046 3.999964702178143 0  -6.000018610665908 3.999953451663679 0  -5.000019925723928 3.999949714933813 0  -4.000002543339059 3.999952404274084 0  -2.99999090099704 3.99996742026751 0  -1.999987886885971 3.999986939833902 0  -0.9999923599595162 4.000002654172679 0  -9.087193812951214e-07 4.000009031497366 0  0.9999903491503284 4.000004205602057 0  1.999985214492579 3.999991052273659 0  2.999987484127669 3.999973264003895 0  3.99999831311382 3.99995546611167 0  5.000014951915963 3.99994981191255 0  6.000014645882097 3.999955559488856 0  7.000012173334598 3.999966773828905 0  8.000006976528308 3.999982249657621 0  9 4 0  -9 6 0  -8.000018248252788 5.999959390731996 0  -7.000029769893049 5.999923219399309 0  -6.00002943468591 5.999896045881561 0  -5.000015778067812 5.999882232873503 0  -3.999981853534234 5.999904559286588 0  -2.999966463021755 5.999951032579708 0  -1.999972657661661 5.999999715913617 0  -0.9999879530326561 6.000026761528992 0  -3.396544192811769e-06 6.000032232926377 0  0.9999827458204513 6.000023593006288 0  1.999972184511265 5.999999616396542 0  2.999968178175576 5.999959103043571 0  3.999976066027716 5.999917169975264 0  5.000004761125607 5.99989659397804 0  6.000022768064554 5.9999053519705 0  7.000026228641035 5.999928970095336 0  8.000016767807663 5.999962164526921 0  9 6 0  -9 8 0  -8.000055151834349 7.999919976514623 0  -7.000092179960639 7.999845753286891 0  -6.000093542715542 7.999785205872193 0  -5.00004427353763 7.999751304912277 0  -3.999978490420729 7.999854066761163 0  -2.999990847510962 7.999974781357318 0  -2.000015768788383 8.000033510137637 0  -1.00001804693181 8.000040063487626 0  -3.466522023751091e-06 8.000041946961987 0  1.000007469057656 8.000047832187773 0  2.000002988155539 8.000023581714931 0  2.999974563363291 7.999982309853588 0  3.999964927656527 7.999879792273124 0  5.000029074499007 7.999764103437156 0  6.000089070063522 7.999795714721517 0  7.000091963165196 7.999852869362604 0  8.000055781509456 7.999923521424765 0  9 8 0  -9 10 0  -8.000164512861554 9.999857391357029 0  -7.000297209421093 9.999713630508717 0  -6.000360140561726 9.999567856883496 0  -5.000300494103516 9.999419894568295 0  -4.000195963366986 9.999752177691921 0  -3.000213507207866 10.00003784677986 0  -2.000171552716808 9.999988225727712 0  -1.00007997443232 9.999972307965356 0  -1.268865068548534e-05 9.999968430456184 0  1.000053957882633 9.999968770812618 0  2.000142590983496 9.999967155017975 0  3.000220628582043 10.0000692292857 0  4.000210891451447 9.99980105377931 0  5.000328642908952 9.99944714981984 0  6.000383702848121 9.999583964880228 0  7.000313946951818 9.999722812865896 0  8.000173162175255 9.999861593716581 0  9 10 0  -9 12 0  -8.000400965402878 11.9997994794913 0  -7.000781017015703 11.99958966768072 0  -6.001116501464135 11.99935945242457 0  -5.001378098487665 11.99909333222618 0  -4.001324294027441 11.99970024301627 0  -3.001372937764951 12.00030118563571 0  -2.000946331085577 12.00022807858998 0  -1.000470789518978 12.0001881588906 0  2.344918881228514e-05 12.00017976685263 0  1.00052289430232 12.00020411132008 0  2.001016225491157 12.0002684048202 0  3.001481168427194 12.00039074314376 0  4.00143030235802 11.99974688298524 0  5.001464297298983 11.99909776882595 0  6.001177210601699 11.99936422308101 0  7.000819852174367 11.99959311067554 0  8.0004199339047 11.99980121736706 0  9 12 0  -9 14 0  -8.000720713737882 13.99977880595174 0  -7.001442517927077 13.99954744519454 0  -6.002167427818081 13.99929485260402 0  -5.002899903629507 13.9990082017971 0  -4.00290702298314 13.9997191351692 0  -3.002911731219715 14.00043905955263 0  -2.001917525542625 14.00033531608317 0  -1.000936692900436 14.00027801769084 0  3.883938929724271e-05 14.00026026569918 0  1.001016802952971 14.00027978816247 0  2.002004399598737 14.00033766570245 0  3.00300729102948 14.0004370607241 0  4.003015419518923 13.99972222894301 0  5.003019868725056 13.99901186373286 0  6.002250953178066 13.99929502646269 0  7.001495498224405 13.9995466985014 0  8.000746457737508 13.99977822826987 0  9 14 0  -9 16 0  -8.00103560892817 15.99979884813104 0  -7.002090786975768 15.99959025334301 0  -6.003186788492402 15.99936664089864 0  -5.004348347486083 15.99912029867733 0  -4.004389253407735 15.99972898529753 0  -3.00435064475442 16.00033446030207 0  -2.002836494111741 16.00025716577685 0  -1.001381953122822 16.0002100067938 0  4.451937794388271e-05 16.00019195156409 0  1.001472759197979 16.00020232398851 0  2.002932625605865 16.00024113569334 0  3.004455888478776 16.00030893584726 0  4.004499649947512 15.99970412846232 0  5.004461682750494 15.9990988412449 0  6.003269412206023 15.99935198208631 0  7.002144613928865 15.99958098794848 0  8.001062130676486 15.99979434099886 0  9 16 0  -9 18 0  -8.001271708388041 17.99984867498356 0  -7.002574834168144 17.99969318342785 0  -6.003942425949615 17.99952943124813 0  -5.005410795975042 17.99935349292385 0  -4.005472944548417 17.99973159565735 0  -3.005413183401076 18.00010920241412 0  -2.003518648234257 18.00005879527176 0  -1.001715701579341 18.0000259157733 0  4.309474244327051e-05 18.00001025748291 0  1.001802888759674 18.00001142573705 0  2.003608766653621 18.00002896119612 0  3.005507949237826 18.00006225121727 0  4.005571379522115 17.99969045320545 0  5.005511145981318 17.99931974070571 0  6.004016335369942 17.99950559910241 0  7.002623436536388 17.99967796327613 0  8.001295804098531 17.99984125701949 0  9 18 0  -9 20 0  -8.00138165669866 19.99991516010899 0  -7.002800065369701 19.99982916873421 0  -6.00429338525919 19.99974099535901 0  -5.005902593815858 19.99964985060909 0  -4.005973705312191 19.99973189817763 0  -3.005903646511388 19.99981342560965 0  -2.003836276956623 19.99979055356084 0  -1.001873718207254 19.99977318636662 0  3.76380116977866e-05 19.99976150254303 0  1.001949461726907 19.99975529570284 0  2.00391339344927 19.99975398777475 0  3.005982961317163 19.99975659525139 0  4.006054340665316 19.9996835136316 0  5.005984023295734 19.99961119935082 0  6.004353916689086 19.99971322746804 0  7.002840152462087 19.99981123727729 0  8.00140161806698 19.99990636807827 0  8.999999999991889 19.99999999999354 0  -9 22 0  -8.001344151898587 21.99998624205398 0  -7.002724704812927 21.99997388002983 0  -6.004179205762185 21.99996444691252 0  -5.005747488881394 21.99995975263063 0  -4.005817194626943 21.99972924124811 0  -3.005748078564098 21.9994981809693 0  -2.003736515498431 21.99950037324724 0  -1.001827802086849 21.99949781126353 0  3.030516514819516e-05 21.99949092712423 0  1.001888463719648 21.99947965060369 0  2.003797308692449 21.99946341850342 0  3.005809017758437 21.99944116515737 0  4.005877682568435 21.99968118590878 0  5.005807641528375 21.99992168329118 0  6.004224497473778 21.9999369242894 0  7.002754970336837 21.99995601842075 0  8.001359302152228 21.99997745702785 0  9 22 0  -9 24 0  -8.001160586139525 24.00005174063763 0  -7.002352585022776 24.00010687519587 0  -6.003608289141106 24.00016893938293 0  -5.00496171697426 24.00024175910029 0  -4.005021815470712 23.99972397693062 0  -3.004962472615091 23.99920572635297 0  -2.003227153234839 23.99922913930996 0  -1.001580291748841 23.99923965778939 0  2.280810684376164e-05 23.99923785320619 0  1.001625636447126 23.99922375435094 0  2.003271663795426 23.99919684992049 0  3.005005528875087 23.99915608449543 0  4.00506299646197 23.99968242564755 0  5.005001751780799 24.00020908149958 0  6.003639042320766 24.0001451991926 0  7.002373419704855 24.00009141417152 0  8.001171098609921 24.0000441199898 0  9 24 0  -9 26 0  -8.000850850333061 26.00010367285402 0  -7.001724615303763 26.00021215717965 0  -6.002644823443058 26.00033040862618 0  -5.003636149959322 26.0004636783662 0  -4.003680407378758 25.999716597783 0  -3.003637530056601 25.99896917022099 0  -2.002365688728107 25.99900932075843 0  -1.001158519382313 25.99903063426463 0  1.647050309405185e-05 25.99903379159947 0  1.001190951445607 25.99901891073274 0  2.002396573865576 25.99898554754339 0  3.003665771811207 25.99893269420212 0  4.003705750976837 25.99968621064592 0  5.003659761692967 26.00043990404506 0  6.002663677186387 26.00031308681553 0  7.001737715609303 26.00020085162561 0  8.000857554727576 26.00009809266624 0  9 26 0  -9 28 0  -8.000448853456582 28.00013636987577 0  -7.000909773858026 28.00027837668587 0  -6.00139516625513 28.00043180353035 0  -5.001917998436453 28.00060272931383 0  -4.001942186899136 27.9997078390463 0  -3.001920228040768 27.99881277975361 0  -2.001247230836749 27.99886467973946 0  -1.000608796230431 27.99889406187274 0  1.224449118441533e-05 27.99890170513723 0  1.000632625421669 27.99888781367256 0  2.001269058881845 27.9988520173247 0  3.001938648608748 27.99879337054531 0  4.001957094182585 27.99969174042592 0  5.001930829836476 28.00059020537661 0  6.001406205269577 28.00042266022034 0  7.000917793602691 28.00027239972036 0  8.000453057284286 
[...]
<PointData  Vectors="f_44-0"> 
<DataArray  type="Float64"  Name="f_44-0"  NumberOfComponents="3" format="ascii">0.0000000000000000e+00 0.0000000000000000e+00 0.0000000000000000e+00  1.7004943175863354e-08 -2.1865554286550486e+00 0.0000000000000000e+00  9.8878109757633826e-08 -2.1579313774399465e+00 0.0000000000000000e+00  2.0045122841775314e-07 -1.9006112235401480e+00 0.0000000000000000e+00  0.0000000000000000e+00 0.0000000000000000e+00 0.0000000000000000e+00  0.0000000000000000e+00 0.0000000000000000e+00 0.0000000000000000e+00  0.0000000000000000e+00 0.0000000000000000e+00 0.0000000000000000e+00  0.0000000000000000e+00 0.0000000000000000e+00 0.0000000000000000e+00  0.0000000000000000e+00 0.0000000000000000e+00 0.0000000000000000e+00  0.0000000000000000e+00 0.0000000000000000e+00 0.0000000000000000e+00  0.0000000000000000e+00 0.0000000000000000e+00 0.0000000000000000e+00  0.0000000000000000e+00 0.0000000000000000e+00 0.0000000000000000e+00  0.0000000000000000e+00 0.0000000000000000e+00 0.0000000000000000e+00  0.0000000000000000e+00 0.0000000000000000e+00 0.0000000000000000e+00  0.0000000000000000e+00 0.0000000000000000e+00 0.0000000000000000e+00  1.8044900753898884e-08 -2.1940959594510732e+00 0.0000000000000000e+00  9.9798126414960910e-08 -2.1648287832251589e+00 0.0000000000000000e+00  1.9971604897281642e-07 -1.9055259878745763e+00 0.0000000000000000e+00  0.0000000000000000e+00 0.0000000000000000e+00 0.0000000000000000e+00  0.0000000000000000e+00 0.0000000000000000e+00 0.0000000000000000e+00  -3.6091213431955203e-04 -2.0075804824423606e+00 0.0000000000000000e+00  3.3194721885285291e-03 -2.1531751221885593e+00 0.0000000000000000e+00  1.5713955602353599e-02 -2.0147321223681183e+00 0.0000000000000000e+00  9.8590777782756522e-04 -4.1275193862690460e-04 0.0000000000000000e+00  1.1392651507854867e-03 -7.7715231169975577e-04 0.0000000000000000e+00  6.4424538849019986e-04 -4.5091467923439633e-04 0.0000000000000000e+00  5.0228539872141981e-04 6.5218886452352655e-05 0.0000000000000000e+00  2.8762462454665847e-04 3.5296878858645281e-04 0.0000000000000000e+00  9.4786865909358604e-05 2.9714583455190346e-04 0.0000000000000000e+00  -1.0369286928773974e-04 8.1687741496934741e-06 0.0000000000000000e+00  -2.4518578163305199e-04 -3.7741399204456504e-04 0.0000000000000000e+00  -4.2772552092873743e-04 -9.5696046521371193e-04 0.0000000000000000e+00  -6.7707984007622487e-04 -1.1050989106523791e-03 0.0000000000000000e+00  -1.1095521177722459e-03 -1.8340950906331455e-03 0.0000000000000000e+00  -3.0453545266854423e-04 -2.0138265866714664e+00 0.0000000000000000e+00  3.5726232576357344e-03 -2.1599820439246034e+00 0.0000000000000000e+00  1.5930359257556214e-02 -2.0211330293725762e+00 0.0000000000000000e+00  0.0000000000000000e+00 0.0000000000000000e+00 0.0000000000000000e+00  0.0000000000000000e+00 0.0000000000000000e+00 0.0000000000000000e+00  7.2791425248760859e-03 -2.0151100829347288e+00 0.0000000000000000e+00  -1.7355080028979961e-03 -2.1446824071336934e+00 0.0000000000000000e+00  7.3041643811316490e-03 -2.0169458225987822e+00 0.0000000000000000e+00  -1.0796102522936182e-03 -1.6806863265834428e-03 0.0000000000000000e+00  -6.6220224057641851e-05 -1.6012282212850881e-04 0.0000000000000000e+00  1.9742900831362794e-04 1.1099096977031820e-03 0.0000000000000000e+00  1.3336828097942828e-04 1.2730911264525965e-03 0.0000000000000000e+00  -2.1911628866139328e-04 6.2235220170501928e-04 0.0000000000000000e+00  -3.8400827497602017e-04 -1.2241422528879772e-05 0.0000000000000000e+00  -3.3805916112182843e-04 -1.3819256635004424e-04 0.0000000000000000e+00  1.5674864285392600e-04 -6.3121547789890184e-04 0.0000000000000000e+00  2.5869126527183132e-04 -1.1944219444740428e-03 0.0000000000000000e+00  7.3541967257078136e-05 -7.5442922011904456e-04 0.0000000000000000e+00  -1.6035340030307805e-04 -1.5597860836477612e-04 0.0000000000000000e+00  7.5960731524238991e-03 -2.0212041199576549e+00 0.0000000000000000e+00  -1.5654680586605157e-03 -2.1509300895942132e+00 0.0000000000000000e+00  7.2084528535973384e-03 -2.0230772417653164e+00 0.0000000000000000e+00  0.0000000000000000e+00 0.0000000000000000e+00 0.0000000000000000e+00  0.0000000000000000e+00 0.0000000000000000e+00 0.0000000000000000e+00  6.7723272510977640e-03 -2.0164771532724570e+00 0.0000000000000000e+00  -1.8870875794038324e-03 -2.1455698830660261e+00 0.0000000000000000e+00  6.8702468821112356e-03 -2.0166453060676059e+00 0.0000000000000000e+00  -2.3164910511303425e-03 8.7344143423592887e-04 0.0000000000000000e+00  -1.0443244682182943e-03 2.9780468638359488e-03 0.0000000000000000e+00  -9.0248845741205453e-04 2.6046639082988213e-03 0.0000000000000000e+00  -1.6537491043103340e-03 -5.0765209654869692e-04 0.0000000000000000e+00  -1.0563214810095235e-03 -1.8872366421507525e-03 0.0000000000000000e+00  -1.6819291603442033e-04 -8.4907183799413357e-04 0.0000000000000000e+00  5.0809460545970348e-04 -3.2244511695318361e-04 0.0000000000000000e+00  3.0147203289442433e-04 -2.8816111006466045e-04 0.0000000000000000e+00  6.7730783978888875e-04 -1.7597566095607981e-04 0.0000000000000000e+00  1.2550186900302219e-03 -2.0947397765161968e-03 0.0000000000000000e+00  3.0237898912759061e-04 -4.0042039315306586e-03 0.0000000000000000e+00  8.5814185009313506e-03 -2.0219605917930621e+00 0.0000000000000000e+00  -8.3023371603059689e-04 -2.1506229259591252e+00 0.0000000000000000e+00  7.0588976202606984e-03 -2.0211488842651377e+00 0.0000000000000000e+00  0.0000000000000000e+00 0.0000000000000000e+00 0.0000000000000000e+00  0.0000000000000000e+00 0.0000000000000000e+00 0.0000000000000000e+00  5.9640385122496677e-03 -2.0158141292012499e+00 0.0000000000000000e+00  -3.2933394832575821e-03 -2.1459789736535422e+00 0.0000000000000000e+00  4.0938631101351845e-03 -2.0182083471896126e+00 0.0000000000000000e+00  -8.7994859154878202e-03 -2.8952215498889520e-03 0.0000000000000000e+00  -9.9036425173468570e-03 1.3072985053535020e-03 0.0000000000000000e+00  -3.3417486219947624e-03 -3.7348319780803898e-03 0.0000000000000000e+00  -3.2823300643905814e-03 -7.0443907443666961e-03 0.0000000000000000e+00  2.8348433123429832e-04 -3.6382788596951636e-03 0.0000000000000000e+00  1.4538039212110606e-03 -3.0517296493446028e-03 0.0000000000000000e+00  3.5515320551706402e-03 -6.4097906076165086e-03 0.0000000000000000e+00  3.3045754167283252e-03 -9.4835662964311122e-04 0.0000000000000000e+00  1.2315083139427774e-02 -4.2937795994859584e-03 0.0000000000000000e+00  1.3238963723197841e-02 -1.1357221135495605e-02 0.0000000000000000e+00  8.4980998004426413e-03 -1.1118282447242705e-02 0.0000000000000000e+00  1.0003044846104104e-02 -2.0208334872100089e+00 0.0000000000000000e+00  5.7305088545606770e-04 -2.1487535606125236e+00 0.0000000000000000e+00  7.7062466572570612e-03 -2.0188976195486132e+00 0.0000000000000000e+00  0.0000000000000000e+00 0.0000000000000000e+00 0.0000000000000000e+00  0.0000000000000000e+00 0.0000000000000000e+00 0.0000000000000000e+00  4.3291666864169343e-03 -2.0115195307987195e+00 0.0000000000000000e+00  -7.7643605443404023e-03 -2.1415228494377399e+00 0.0000000000000000e+00  -5.2167562370586708e-03 -2.0137911084781730e+00 0.0000000000000000e+00  -4.0047290777217269e-02 1.1097679970285611e-02 0.0000000000000000e+00  -3.0754455159652357e-02 8.4238641841322872e-03 0.0000000000000000e+00  -1.7173073489727429e-02 6.2221639275562195e-03 0.0000000000000000e+00  2.2719017775510146e-04 -1.3269137187397412e-02 0.0000000000000000e+00  8.3928655471110199e-04 -5.2993895616961590e-03 0.0000000000000000e+00  3.3512213795467856e-03 -3.8328886473615116e-03 0.0000000000000000e+00  5.6118127064217604e-03 -4.0795836026109025e-03 0.0000000000000000e+00  5.6076643409097311e-03 -4.5267089009668436e-03 0.0000000000000000e+00  2.6586869342415727e-02 -6.7843009760163737e-03 0.0000000000000000e+00  3.2189052900616244e-02 -1.4503404255251120e-02 0.0000000000000000e+00  3.4117165967167240e-02 -1.9067119116001136e-02 0.0000000000000000e+00  1.5638964140488477e-02 -2.0180826585577778e+00 0.0000000000000000e+00  3.1252456530212161e-03 -2.1446172731254465e+00 0.0000000000000000e+00  8.7196960754969462e-03 -2.0146052218330834e+00 0.0000000000000000e+00  0.0000000000000000e+00 0.0000000000000000e+00 0.0000000000000000e+00  0.0000000000000000e+00 0.0000000000000000e+00 0.0000000000000000e+00  3.0240034909594740e-03 -2.0032894696917216e+00 0.0000000000000000e+00  -1.0688279928289064e-02 -2.1333397869124862e+00 0.0000000000000000e+00  -6.2738258151925595e-03 -2.0076913134280203e+00 0.0000000000000000e+00  -2.8128301923157007e-02 3.7648003382413581e-03 0.0000000000000000e+00  -3.4541337829722706e-02 9.6585663711771328e-03 0.0000000000000000e+00  -4.4591805740665187e-02 2.3992186605355782e-02 0.0000000000000000e+00  -1.8292280829411440e-02 -2.1523751968044000e-02 0.0000000000000000e+00  -6.8422461785719625e-03 -2.3233999123766603e-02 0.0000000000000000e+00  2.0525185695842397e-03 -2.2059825052409349e-02 0.0000000000000000e+00  9.1187290810518067e-03 -2.1437840683404902e-02 0.0000000000000000e+00  1.1930065222815044e-02 -2.0012319069895673e-02 0.0000000000000000e+00  2.2348871365633662e-02 -8.3550360523253243e-03 0.0000000000000000e+00  3.1191850108447328e-02 -1.0171935662248640e-02 0.0000000000000000e+00  3.8967265428910318e-02 -7.1859999009922671e-03 0.0000000000000000e+00  2.1764020843447987e-02 -2.0127365103594652e+00 0.0000000000000000e+00  5.5721093283636631e-03 -2.1373375446454492e+00 0.0000000000000000e+00  9.7869472040260936e-03 -2.0072529097345537e+00 0.0000000000000000e+00  0.0000000000000000e+00 0.0000000000000000e+00 0.0000000000000000e+00  0.0000000000000000e+00 0.0000000000000000e+00 0.0000000000000000e+00  1.5241564969582756e-03 -1.9906136756161870e+00 0.0000000000000000e+00  -1.4387000537287685e-02 -2.1207309799600815e+00 0.0000000000000000e+00  -1.2332422796427369e-02 -1.9958645871692480e+00 0.0000000000000000e+00  -1.6497874787991442e-02 -5.8111592469350304e-03 0.0000000000000000e+00  -2.0792531972500663e-02 -2.3346451466809311e-03 0.0000000000000000e+00  -2.3144072133271212e-02 -4.2202536815960810e-03 0.0000000000000000e+00  -1.6895553983849790e-02 -3.6692619185914065e-02 0.0000000000000000e+00  -7.4005615806645685e-03 -4.0145111584834692e-02 0.0000000000000000e+00  1.7378814531586770e-03 -4.0133745857582628e-02 0.0000000000000000e+00  1.0787899985329790e-02 -3.9340031641019742e-02 0.0000000000000000e+00  1.8587004602427775e-02 -3.4886844860799328e-02 0.0000000000000000e+00  1.7885097503545232e-02 2.7602650745861641e-03 0.0000000000000000e+00  2.2030208401547350e-02 -7.3026912541794607e-04 0.0000000000000000e+00  2.4311546954908524e-02 -6.2345383611567108e-03 0.0000000000000000e+00  2.5971877284482203e-02 -2.0007974964218049e+00 0.0000000000000000e+00  9.4797592555975457e-03 -2.1264678026611290e+00 0.0000000000000000e+00  1.1258526411605725e-02 -1.9959578114140319e+00 0.0000000000000000e+00  0.0000000000000000e+00 0.0000000000000000e+00 0.0000000000000000e+00  0.0000000000000000e+00 0.0000000000000000e+00 0.0000000000000000e+00  -8.1914573920231843e-05 -1.9730992290121541e+00 0.0000000000000000e+00  -1.8271310450497930e-02 -2.1031027714015100e+00 0.0000000000000000e+00  -1.8258324157452092e-02 -1.9782466436413451e+00 0.0000000000000000e+00  -1.4307715474222273e-02 -1.3078791606939935e-02 0.0000000000000000e+00  -1.7883734114055215e-02 -9.9235864794925792e-03 0.0000000000000000e+00  -2.0856099854388299e-02 -6.3617713410009519e-03 0.0000000000000000e+00  -2.2576466054000384e-02 -5.8338478281847642e-02 0.0000000000000000e+00  -1.0694061573557326e-02 -6.0939846047958331e-02 0.0000000000000000e+00  1.6945478292806928e-03 -6.1927757125510650e-02 0.0000000000000000e+00  1.3851920870792317e-02 -6.1577830653591209e-02 0.0000000000000000e+00  2.4612715717608570e-02 -5.6934457294110431e-02 0.0000000000000000e+00  1.5177725657370647e-02 8.7102625458236119e-03 0.0000000000000000e+00  1.8366551728616915e-02 4.8768565792810204e-03 0.0000000000000000e+00  2.1127595751682552e-02 2.3572657733945974e-03 0.0000000000000000e+00  3.1286054256482031e-02 -1.9838291468370910e+00 0.0000000000000000e+00  1.3642856260038961e-02 -2.1103009862810058e+00 0.0000000000000000e+00  1.2897688705851644e-02 -1.9797914111286150e+00 0.0000000000000000e+00  0.0000000000000000e+00 0.0000000000000000e+00 0.0000000000000000e+00  0.0000000000000000e+00 0.0000000000000000e+00 0.0000000000000000e+00  -1.4454932782031465e-03 -1.9512350243813206e+00 0.0000000000000000e+00  -2.1429214151991744e-02 -2.0809041121586933e+00 0.0000000000000000e+00  -2.3374767943155048e-02 -1.9551675772551904e+00 0.0000000000000000e+00  -1.5237718562542510e-02 -1.6069364477646623e-02 0.0000000000000000e+00  -1.7502025603873879e-02 -1.3557988501428369e-02 0.0000000000000000e+00  -1.8305069952816787e-02 -1.1667814377816501e-02 0.0000000000000000e+00  -2.7092371934795734e-02 -8.7644932570396794e-02 0.0000000000000000e+00  -1.3548973531361896e-02 -8.8463998715818837e-02 0.0000000000000000e+00  1.3269370512420519e-03 -8.9085744768456154e-02 0.0000000000000000e+00  1.5958468600264644e-02 -8.9335728166002673e-02 0.0000000000000000e+00  2.9180700067811118e-02 -8.5738207550093495e-02 0.0000000000000000e+00  1.6346832842033913e-02 1.1463169149021867e-02 0.0000000000000000e+00  1.8605369014048533e-02 9.0323364919791573e-03 0.0000000000000000e+00  1.9452247138495971e-02 7.1040486267951834e-03 0.0000000000000000e+00  3.6378423496520214e-02 -1.9605557187846856e+00 0.0000000000000000e+00  1.7441774762954054e-02 -2.0889396027091980e+00 0.0000000000000000e+00  1.4363185762695550e-02 -1.9587426416112441e+00 0.0000000000000000e+00  0.0000000000000000e+00 0.0000000000000000e+00 0.0000000000000000e+00  0.0000000000000000e+00 0.0000000000000000e+00 0.0000000000000000e+00  -2.2133253594202066e-03 -1.9265499669189461e+00 0.0000000000000000e+00  -2.3018407478196310e-02 -2.0557072444780191e+00 0.0000000000000000e+00  -2.6103881715493306e-02 -1.9284391529355072e+00 0.0000000000000000e+00  -1.6678744156977926e-02 -1.5949932903195220e-02 0.0000000000000000e+00  -1.7783197405675247e-02 -1.5322226506136450e-02 0.0000000000000000e+00  -1.7483926007849232e-02 -1.5189836057406357e-02 0.0000000000000000e+00  -2.9210284412689039e-02 -1.2124025492870913e-01 0.0000000000000000e+00  -1.5136519649571871e-02 -1.1994793311355136e-01 0.0000000000000000e+00  9.1883982164827987e-04 -1.2003888315318562e-01 0.0000000000000000e+00  1.6749896231782892e-02 -1.2088639823853183e-01 0.0000000000000000e+00  3.1493089783436033e-02 -1.1892418348854623e-01 0.0000000000000000e+00  1.8043426294490145e-02 1.1232938127034062e-02 0.0000000000000000e+00  1.9097815811905193e-02 1.0548813896759246e-02 0.0000000000000000e+00  1.8689297950475886e-02 1.0306478286066182e-02 0.0000000000000000e+00  3.8840816039596694e-02 -1.9331625165809339e+00 0.0000000000000000e+00  1.9475410005248484e-02 -2.0636299020282309e+00 0.0000000000000000e+00  1.5117431475525510e-02 -1.9340934748313772e+00 0.0000000000000000e+00  -3.4347182219537601e-10 -1.0565094749799942e-09 0.0000000000000000e+00  0.0000000000000000e+00 0.0000000000000000e+00 0.0000000000000000e+00  -2.1528778662536496e-03 -1.9013352200214211e+00 0.0000000000000000e+00  -2.2521615911362949e-02 -2.0298937924516807e+00 0.0000000000000000e+00  -2.5590551198166986e-02 -1.9007586243721246e+00 0.0000000000000000e+00  -1.7125703922788074e-02 -1.3659226739227844e-02 0.0000000000000000e+00  -1.7227312193867479e-02 -1.5121654803116273e-02 0.0000000000000000e+00  -1.5945576951824789e-02 -1.6961230536621682e-02 0.0000000000000000e+00  -2.8337513324935736e-02 -1.5559504051179238e-01 0.0000000000000000e+00  -1.5073706118976283e-02 -1.5234002051454662e-01 0.0000000000000000e+00  5.4180679828112169e-04 -1.5177672633803710e-01 0.0000000000000000e+00  1.5968686137015371e-02 -1.5321221346616287e-01 0.0000000000000000e+00  3.0775225631948577e-02 -1.5321651745747891e-01 0.0000000000000000e+00  1.8652164405495029e-02 8.7929972429003182e-03 0.0000000000000000e+00  1.8690125346328485e-02 1.0224165293609923e-02 0.0000000000000000e+00  1.7353526270787047e-02 1.2042987317293818e-02 0.0000000000000000e+00  3.8151934422244273e-02 -1.9046538946975333e+00 0.0000000000000000e+00  1.9317421833985812e-02 -2.0370184010345818e+00 0.0000000000000000e+00  1.4960774245910158e-02 -1.9082228794288505e+00 0.0000000000000000e+00  0.0000000000000000e+00 0.0000000000000000e+00 0.0000000000000000e+00  0.0000000000000000e+00 0.0000000000000000e+00 0.0000000000000000e+00  -1.1937035487608004e-03 -1.8782024772472719e+00 0.0000000000000000e+00  -1.9829436239357432e-02 -2.0061667526737170e+00 0.0000000000000000e+00  -2.1648780162475401e-02 -1.8751228611303810e+00 0.0000000000000000e+00  -1.5778505899075122e-02 -9.8808110879060503e-03 0.0000000000000000e+00  -1.5001711852243022e-02 -1.3359335409165738e-02 0.0000000000000000e+00  -1.3052927089166033e-02 -1.7128414704279483e-02 0.0000000000000000e+00  -2.4298974031444480e-02 -1.8708136282266519e-01 0.0000000000000000e+00  -1.3275719717942558e-02 -1.8221105157271394e-01 0.0000000000000000e+00  2.4179219876500514e-04 -1.8099722182774231e-01 0.0000000000000000e+00  1.3598878441348709e-02 -1.8293831261323171e-01 0.0000000000000000e+00  2.6901370492162274e-02 -1.8495610492528761e-01 0.0000000000000000e+00  1.7419033951879943e-02 4.9058672057647763e-03 0.0000000000000000e+00  1.6576274584889687e-02 8.3708080700742073e-03 0.0000000000000000e+00  1.4565795123052398e-02 1.2118596727788502e-02 0.0000000000000000e+00  3.4117374857272273e-02 -1.8780658493167548e+00 0.0000000000000000e+00  1.6888545766334587e-02 -2.0119559831671290e+00 0.0000000000000000e+00  1.3869914687566218e-02 -1.8838694379205643e+00 0.0000000000000000e+00  0.0000000000000000e+00 0.0000000000000000e+00 0.0000000000000000e+00  0.0000000000000000e+00 0.0000000000000000e+00 0.0000000000000000e+00  5.9214441720638398e-04 -1.8596536973470614e+00 0.0000000000000000e+00  -1.5171655942560737e-02 -1.9871082788186767e+00 0.0000000000000000e+00  -1.4618932325843237e-02 -1.8543591780814821e+00 0.0000000000000000e+00  -1.2462566680421214e-02 -5.2845643253591930e-03 0.0000000000000000e+00  -1.0969940983621355e-02 -1.0424775797161437e-02 0.0000000000000000e+00  -8.6301740156405123e-03 -1.5760182726921049e-02 0.0000000000000000e+00  -1.7484391785173862e-02 -2.1227739880644853e-01 0.0000000000000000e+00  -9.9368165254211036e-03 -2.0632730221063292e-01 0.0000000000000000e+00  2.6140206217562416e-05 -2.0454840237446920e-01 0.0000000000000000e+00  9.8475839527940989e-03 -2.0685592362440577e-01 0.0000000000000000e+00  2.0216184577971988e-02 -2.1068201933170216e-01 0.0000000000000000e+00  1.4181546338589262e-02 2.2578122252175917e-04 0.0000000000000000e+00  1.2617835598589559e-02 5.3599130985596604e-03 0.0000000000000000e+00  1.0214690706376020e-02 1.0683377034595430e-02 0.0000000000000000e+00  2.7088316740370235e-02 -1.8562980823456181e+00 0.0000000000000000e+00  1.2425642992594552e-02 -1.9911640442551257e+00 0.0000000000000000e+00  1.1954911577574988e-02 -1.8636661026132031e+00 0.0000000000000000e+00  0.0000000000000000e+00 0.0000000000000000e+00 0.0000000000000000e+00  0.0000000000000000e+00 0.0000000000000000e+00 0.0000000000000000e+00  3.0211141596888165e-03 -1.8477348265748892e+00 0.0000000000000000e+00  -9.0348381802171068e-03 -1.9748249198774113e+00 0.0000000000000000e+00  -5.2464046519758879e-03 -1.8407698895087652e+00 0.0000000000000000e+00  -7.4934144007627662e-03 -4.6092817310453455e-04 0.0000000000000000e+00  -5.4662867110730892e-03 -6.7003240489101317e-03 0.0000000000000000e+00  -2.9948811250229889e-03 -1.3038755291823023e-02 0.0000000000000000e+00  -8.6274707076265996e-03 -2.2844729085842666e-01 0.0000000000000000e+00  -5.4373142054833529e-03 -2.2206059301787823e-01 0.0000000000000000e+00  -1.0388356204466251e-04 -2.1986304434388113e-01 0.0000000000000000e+00  5.0962073117172910e-03 -2.2235244583123670e-01 0.0000000000000000e+00  1.1427925487027202e-02 -2.2757845807025787e-01 0.0000000000000000e+00  9.2583470126127634e-03 -4.6576748311906620e-03 0.0000000000000000e+00  7.1585400547064934e-03 1.5803758879052250e-03 0.000