<?xml version="1.0"?>
<VTKFile type="UnstructuredGrid"  version="0.1"  >
<UnstructuredGrid>
<Piece  NumberOfPoints="589" NumberOfCells="1080">
<Points>
<DataArray  type="Float64"  NumberOfComponents="3"  format="ascii">-9 0 0  -8 0 0  -7 0 0  -6 0 0  -5 0 0  -4 0 0  -3 0 0  -2 0 0  -1 0 0  0 0 0  1 0 0  2 0 0  3 0 0  4 0 0  5 0 0  6 0 0  7 0 0  8 0 0  9 0 0  -9 2 0  -7.999995328962613 2.000006354665427 0  -6.999990263261124 2.000011953252959 0  -5.99998385863949 2.000016183870168 0  -4.999973940769038 2.000018783571334 0  -3.999984010876947 2.000013942367719 0  -2.999994361373167 2.000009492003286 0  -1.999999506205541 2.000005370871903 0  -1.000000559818838 2.000002092127245 0  9.738721627526882e-07 2.000000577364392 0  1.000002798603677 2.000001360980467 0  2.000002724919114 2.000004167693093 0  2.999999331307758 2.000007541012956 0  3.999992304194142 2.000010887954722 0  4.999982375024791 2.00001139897332 0  5.99998973634117 2.000011374528506 0  6.999994027076088 2.000008950546786 0  7.999997173281796 2.000004892451255 0  9 2 0  -9.000000000009988 4 0  -7.999992236511924 4.000015733866053 0  -6.999985882194427 4.000029378558033 0  -5.999981770243275 4.000038891496683 0  -4.999979760212627 4.000042334410817 0  -3.999994107012097 4.000039905992854 0  -3.000003765968603 4.00002755504243 0  -2.000006435298985 4.000011568212815 0  -1.000003045377494 3.999998668820925 0  3.656723904490359e-06 3.999993261834077 0  1.000010577765669 3.999996708609925 0  2.000014742564311 4.000006624478089 0  3.000013206728879 4.000019977512276 0  4.000005106076006 4.000032960770151 0  4.999992546554234 4.000035828452186 0  5.999991754997152 4.000032347297549 0  6.999992632250226 4.000024437717632 0  7.999995624461925 4.000013122505593 0  9 4 0  -9 6 0  -7.999983507032304 6.000033470812607 0  -6.999972531624427 6.000063331838676 0  -5.999971274194024 6.00008588012743 0  -4.999980910417247 6.000097599873291 0  -4.000008489784803 6.000079125876485 0  -3.000020986368701 6.000041148084915 0  -2.000015890435253 6.000001479328444 0  -1.000003534388435 5.999979570101154 0  8.748442175004531e-06 5.999974986620153 0  1.00001959893056 5.999981473378816 0  2.000027798822768 5.999999745433183 0  3.000030986260508 6.000030634486545 0  4.000025025150056 6.000062270083447 0  5.000002813695496 6.000076876363371 0  5.99998709836091 6.000071034555605 0  6.999982777355131 6.000053548285917 0  7.999988542011415 6.00002858254295 0  9 6 0  -9 8 0  -7.999952705999401 8.000065651685931 0  -6.999920307342238 8.000126541159423 0  -5.99991720262795 8.0001761878575 0  -4.999955597324562 8.00020390692889 0  -4.000009077712214 8.000119675675556 0  -2.999998156738118 8.000020973433825 0  -1.999977217570897 7.999973577656843 0  -0.999975163973985 7.9999690790238 0  1.286577286797712e-05 7.999967921249155 0  1.000003575829944 7.999963205038698 0  2.00000656355538 7.999981440502958 0  3.000028557458808 8.000012607449692 0  4.00003586567306 8.000091358045557 0  4.999985726938898 8.000180346105477 0  5.999936860931612 8.000156306086266 0  6.999932576032238 8.000112581545832 0  7.999958683102496 8.00005851333148 0  9 8 0  -9 10 0  -7.999862299151334 10.0001169009866 0  -6.999750880566473 10.00023475187106 0  -5.999697109558639 10.00035425600775 0  -4.999744560981449 10.00047556688778 0  -3.999830086198783 10.00020191223888 0  -2.999814339606664 9.999966975786904 0  -1.999847934322694 10.00001019126001 0  -0.9999227715985936 10.00002413181329 0  2.292571785955276e-05 10.0000275225209 0  0.9999696119980241 10.0000269903779 0  1.999899400101426 10.00002732976949 0  2.999836596045601 9.999946128560646 0  3.999843290820853 10.0001533512898 0  4.999752129761328 10.0004269926768 0  5.999708251932437 10.00032035134013 0  6.99976077762053 10.00021300917379 0  7.999867966137693 10.00010623691043 0  9 10 0  -9 12 0  -7.999666649032651 12.00016439290605 0  -6.999350677238171 12.00033642096954 0  -5.999071766298932 12.00052522186792 0  -4.998854182623822 12.00074357432633 0  -3.998898576428196 12.00024190737625 0  -2.998857424671978 11.99974472283813 0  -1.9991936017178 11.99980838265803 0  -0.9995715224297671 11.99984487428353 0  3.375248772073479e-05 11.99985566931919 0  0.9996330267143573 11.99984002689447 0  1.999234860597338 11.99979244404188 0  2.998855864787188 11.99969884883535 0  3.998893758800208 12.00019438059808 0  4.998868913701401 12.00069354720612 0  5.999093802491615 12.00048728000964 0  6.999370215569647 12.00031120631664 0  7.999677799732195 12.00015184936632 0  9 12 0  -9 14 0  -7.999401244684489 14.00018139227594 0  -6.998801850234614 14.00037108199968 0  -5.998200463659069 14.00057810291907 0  -4.997593621131474 14.00081292593375 0  -3.997588330027831 14.0002225041464 0  -2.997583380165153 13.9996243606325 0  -1.998372741643923 13.99971533450626 0  -0.9991532707576657 13.99976848074215 0  6.85972282266658e-05 13.99978963417312 0  0.9992864913000761 13.99978090493265 0  1.998494218379018 13.99974172089776 0  2.99768654805252 13.99966985095559 0  3.99767773983494 14.00021146523716 0  4.997676157096108 14.00074925810868 0  5.998272761992056 14.0005335950235 0  6.998854682241808 14.00034263146821 0  7.999428991618291 14.00016748291585 0  9 14 0  -9 16 0  -7.999138070476256 16.00016523408957 0  -6.998260454828753 16.00033648606349 0  -5.997350121999633 16.00051987688901 0  -4.996387121475703 16.000721608111 0  -3.996354288186209 16.00021106047731 0  -2.99638463710519 15.99970303614165 0  -1.997588035423937 15.99977384761339 0  -0.9987449899353917 15.99982025879086 0  0.0001193099006095655 15.99984330818473 0  0.9989809440021939 15.99984377520864 0  1.997815884303341 15.99982191162464 0  2.996598506122924 15.99977756002067 0  3.996562198248556 16.00022366192068 0  4.996593646772568 16.00066998586949 0  5.997509631012342 16.00048121620509 0  6.998369094717752 16.00031086962015 0  7.999193094015125 16.00015249174387 0  9 16 0  -9 18 0  -7.998937292783393 18.00012501279004 0  -6.997849310164853 18.00025336696269 0  -5.99670946128405 18.00038834164753 0  -4.995488459345331 18.00053304951981 0  -3.995438214356216 18.00020664190756 0  -2.995485453282975 17.99988050295815 0  -1.996990149701632 17.99993016699586 0  -0.9984222320452391 17.99996569225871 0  0.0001806282768958211 17.9999875161508 0  0.9987825529826601 17.99999616610206 0  1.99734770613606 17.99999224231942 0  2.995838575646413 17.99997648902357 0  3.995787811955971 18.00023323346625 0  4.995836237521188 18.00048896674648 0  5.996971646141058 18.00035520930885 0  6.99802478302555 18.00023127199347 0  7.999025242435994 18.00011396926064 0  9 18 0  -9 20 0  -7.998837294978162 20.00007142011106 0  -6.997644998804108 20.00014377236873 0  -5.996392379204366 20.00021788911418 0  -4.995046405494153 20.00029439067333 0  -3.994988809494792 20.00020503999174 0  -2.995044292073502 20.00011587194553 0  -1.996683873623902 20.00014318791733 0  -0.9982398047969734 20.00016608145985 0  0.0002456355468226898 20.0001845688761 0  0.9987316952243201 20.00019899454399 0  1.997177673276894 20.0002100212104 0  2.995541444102275 20.00021865770017 0  3.995485435081912 20.00023830782158 0  4.995540933679739 20.00025710655379 0  5.996761793408949 20.00018993832924 0  6.99789060005187 20.00012514347657 0  7.998959899332057 20.0000621075871 0  8.999999999974102 20.00000000000429 0  -9 22 0  -7.998855367212399 22.00001409145697 0  -6.997681358202932 22.00002711566733 0  -5.99644767605552 22.0000378938074 0  -4.995122174688966 22.00004502091366 0  -3.995065766543441 22.00020624084203 0  -2.995120740697883 22.00036753837639 0  -1.996713347494563 22.00037394615188 0  -0.9982234153565178 22.00038414622633 0  0.0003081444809750391 22.00039791854223 0  0.9988416696242096 22.00041546349438 0  1.997337562719041 22.00043739461158 0  2.995755109173825 22.00046474688314 0  3.995701942173637 22.00024009598949 0  4.995756143664698 22.00001471004817 0  5.996919234558653 22.00001517209684 0  6.997993900275609 22.00001197519671 0  7.999011095573464 22.00000652385378 0  9 22 0  -9 24 0  -7.998990648705353 23.9999610299711 0  -6.997955783806046 23.99991943925637 0  -5.996869210491136 23.99987249451722 0  -4.995703338663445 23.99981723533719 0  -3.995654821795953 24.00020931945539 0  -2.99570254614217 24.00060132808794 0  -1.997074074222607 24.0005894900855 0  -0.998374046302358 24.00058787829149 0  0.0003628109150783522 24.00059613223956 0  0.9991027200962285 24.00061433769159 0  1.997811976817064 24.00064302493119 0  2.996456073982591 24.0006831724061 0  3.996412026658469 24.0002388793986 0  4.996458165184309 23.99979390614726 0  5.997429484840239 23.99985504169775 0  6.998326553427975 23.99990782457317 0  7.999175215288917 23.99995522843343 0  9 24 0  -9 26 0  -7.999227654315984 25.9999184550479 0  -6.998436399301911 25.99983318369646 0  -5.997606881889021 25.99974034608566 0  -4.996718812352802 25.99963587930566 0  -3.996683161433939 26.00021345831677 0  -2.996718511639772 26.00079085430358 0  -1.997722068012043 26.00076402888557 0  -0.9986724661869747 26.00075204739001 0  0.0004053156732673389 26.00075443716345 0  0.9994869475354824 26.00077117749111 0  1.998548177312967 26.00080270020591 0  2.997564261379461 26.00084989039658 0  3.99753394992166 26.00023512493583 0  4.997567093399851 25.99961978746147 0  5.99823583411613 25.99972833168004 0  6.998852282527651 25.99982519911194 0  7.999434577120356 25.99991446998601 0  9 26 0  -9 28 0  -7.999539922808673 27.99989079063253 0  -6.999069377353902 27.99977719292453 0  -5.998577686929736 27.99965470638287 0  -4.998053688691003 27.99951860866163 0  -3.998034126521709 28.00021802729698 0  -2.998053586546061 28.00091718905405 0  -1.998583711039226 28.00087909041035 0  -0.999084061539919 28.00085862874816 0  0.0004324705636487256 28.00085523137351 0  0.9999533433990182 28.00086877514655 0  1.999466095114682 28.00089958668171 0  2.998958074626173 28.00094844270509 0  3.998944495739205 28.00022947174224 0  4.998961467739796 27.99951006384476 0  5.999250397522024 27.99964834687614 0  6.999514022270703 27.99977297568
[...]
<PointData  Vectors="f_44-0"> 
<DataArray  type="Float64"  Name="f_44-0"  NumberOfComponents="3" format="ascii">0.0000000000000000e+00 0.0000000000000000e+00 0.0000000000000000e+00  1.4772032058292079e-07 -1.1443475294218256e+01 0.0000000000000000e+00  2.4480775456341274e-07 -1.2371246590228870e+01 0.0000000000000000e+00  2.0205497313868534e-07 -1.1661510512866590e+01 0.0000000000000000e+00  0.0000000000000000e+00 0.0000000000000000e+00 0.0000000000000000e+00  0.0000000000000000e+00 0.0000000000000000e+00 0.0000000000000000e+00  0.0000000000000000e+00 0.0000000000000000e+00 0.0000000000000000e+00  0.0000000000000000e+00 0.0000000000000000e+00 0.0000000000000000e+00  0.0000000000000000e+00 0.0000000000000000e+00 0.0000000000000000e+00  0.0000000000000000e+00 0.0000000000000000e+00 0.0000000000000000e+00  0.0000000000000000e+00 0.0000000000000000e+00 0.0000000000000000e+00  0.0000000000000000e+00 0.0000000000000000e+00 0.0000000000000000e+00  0.0000000000000000e+00 0.0000000000000000e+00 0.0000000000000000e+00  0.0000000000000000e+00 0.0000000000000000e+00 0.0000000000000000e+00  0.0000000000000000e+00 0.0000000000000000e+00 0.0000000000000000e+00  1.4802954097788324e-07 -1.1415397034675987e+01 0.0000000000000000e+00  2.4044231555722606e-07 -1.2346167309671491e+01 0.0000000000000000e+00  1.9748618619537449e-07 -1.1638112166020232e+01 0.0000000000000000e+00  0.0000000000000000e+00 0.0000000000000000e+00 0.0000000000000000e+00  0.0000000000000000e+00 0.0000000000000000e+00 0.0000000000000000e+00  -1.4130852789140450e-02 -1.1590294557832772e+01 0.0000000000000000e+00  -2.0279770594901349e-02 -1.2354371509528971e+01 0.0000000000000000e+00  -3.9928139509469392e-02 -1.1594180319062501e+01 0.0000000000000000e+00  -4.0904895845513364e-04 6.3802698396378380e-04 0.0000000000000000e+00  -6.9420081548620153e-04 8.9499946575132005e-04 0.0000000000000000e+00  -4.2122307905906201e-04 5.5693465031719368e-04 0.0000000000000000e+00  -3.7707824489343380e-04 5.7870799026214666e-05 0.0000000000000000e+00  -2.0785893683493764e-04 -2.3419012754700481e-04 0.0000000000000000e+00  -1.9518499959103450e-05 -2.1727589654671015e-04 0.0000000000000000e+00  1.7231112368874788e-04 2.4598725076699230e-05 0.0000000000000000e+00  2.7940419113148170e-04 3.7454385515858318e-04 0.0000000000000000e+00  3.5600844642723318e-04 8.8423557926051589e-04 0.0000000000000000e+00  4.0945790552099841e-04 1.0416701927067299e-03 0.0000000000000000e+00  5.5688571940696002e-04 1.5455994744712675e-03 0.0000000000000000e+00  -1.5032091241491619e-02 -1.1568022548068932e+01 0.0000000000000000e+00  -2.1591367482915125e-02 -1.2333515768815630e+01 0.0000000000000000e+00  -4.1922488999170386e-02 -1.1572272021626471e+01 0.0000000000000000e+00  0.0000000000000000e+00 0.0000000000000000e+00 0.0000000000000000e+00  0.0000000000000000e+00 0.0000000000000000e+00 0.0000000000000000e+00  -1.4406043572459842e-02 -1.1597072286678475e+01 0.0000000000000000e+00  -2.3986380526705174e-02 -1.2382326461558465e+01 0.0000000000000000e+00  -3.5867880798766669e-02 -1.1584884930155603e+01 0.0000000000000000e+00  1.2380803650261106e-03 2.0741162170025210e-03 0.0000000000000000e+00  1.6109181876816365e-04 7.5610184715686236e-04 0.0000000000000000e+00  -2.1886343867647369e-04 -5.0220308631401497e-04 0.0000000000000000e+00  -2.1885175920396326e-04 -8.7069318971626241e-04 0.0000000000000000e+00  1.1796269901932691e-04 -5.1171777404397829e-04 0.0000000000000000e+00  3.4385311757510295e-04 -6.0726548708148045e-05 0.0000000000000000e+00  3.9161218147484915e-04 1.0715756606224152e-04 0.0000000000000000e+00  2.8366341491694998e-05 6.6719273096070943e-04 0.0000000000000000e+00  -1.0674220325211132e-04 1.3408154871626735e-03 0.0000000000000000e+00  -1.1623413252644456e-04 1.2205063847746959e-03 0.0000000000000000e+00  -1.3977750561777484e-04 8.7130677017801356e-04 0.0000000000000000e+00  -1.4731440023350922e-02 -1.1568377411499204e+01 0.0000000000000000e+00  -2.4415547938332532e-02 -1.2354218903007963e+01 0.0000000000000000e+00  -3.6829356119456778e-02 -1.1555916609218038e+01 0.0000000000000000e+00  0.0000000000000000e+00 0.0000000000000000e+00 0.0000000000000000e+00  0.0000000000000000e+00 0.0000000000000000e+00 0.0000000000000000e+00  -7.5763668616696082e-03 -1.1586672344372474e+01 0.0000000000000000e+00  -1.1567833555069488e-02 -1.2376417493396573e+01 0.0000000000000000e+00  -2.5351311897572677e-02 -1.1570241460670259e+01 0.0000000000000000e+00  2.2052051531885534e-03 7.3880458902683536e-04 0.0000000000000000e+00  7.0451281243407262e-04 -1.3017166118146413e-03 0.0000000000000000e+00  3.8579706214299795e-04 -1.5430205729524047e-03 0.0000000000000000e+00  1.0900605044147798e-03 5.0672076563579901e-04 0.0000000000000000e+00  7.6295149863079680e-04 1.3312402027614171e-03 0.0000000000000000e+00  1.8539870299146455e-04 4.1166268515368393e-04 0.0000000000000000e+00  -2.2220249467535137e-04 7.1058626884160382e-05 0.0000000000000000e+00  6.4091830689983549e-05 3.3007440482775197e-04 0.0000000000000000e+00  -2.0488901516865863e-04 7.4709808431960346e-04 0.0000000000000000e+00  -8.1238589156985689e-04 2.8432484511226788e-03 0.0000000000000000e+00  -4.2630011147951904e-04 4.6456271481355163e-03 0.0000000000000000e+00  -1.0874355544901012e-02 -1.1560210411803054e+01 0.0000000000000000e+00  -1.7276096206990645e-02 -1.2353966874588329e+01 0.0000000000000000e+00  -3.1898378004121042e-02 -1.1554598369438660e+01 0.0000000000000000e+00  0.0000000000000000e+00 0.0000000000000000e+00 0.0000000000000000e+00  0.0000000000000000e+00 0.0000000000000000e+00 0.0000000000000000e+00  -4.9806227302299768e-03 -1.1591278278071558e+01 0.0000000000000000e+00  -6.1482639715291160e-03 -1.2378020942651032e+01 0.0000000000000000e+00  -2.1272881820541871e-02 -1.1574335112588605e+01 0.0000000000000000e+00  7.9257066488691973e-03 5.6207570104238940e-03 0.0000000000000000e+00  8.1097977396656588e-03 7.7273317057854408e-04 0.0000000000000000e+00  2.6375128394947539e-03 3.5840168218771147e-03 0.0000000000000000e+00  2.9131700527137545e-03 5.6643747427937560e-03 0.0000000000000000e+00  -7.9460167541695335e-05 2.6253904616319926e-03 0.0000000000000000e+00  -1.2229790781064711e-03 2.0761896313163013e-03 0.0000000000000000e+00  -3.0491399470083179e-03 4.6903991427742738e-03 0.0000000000000000e+00  -2.8470071713600745e-03 6.2582255532426980e-04 0.0000000000000000e+00  -9.8260299648304482e-03 3.8429322579578385e-03 0.0000000000000000e+00  -1.0453629591593594e-02 1.0802250340105261e-02 0.0000000000000000e+00  -7.4336172695570590e-03 1.2035717482001190e-02 0.0000000000000000e+00  -8.1139757180237158e-03 -1.1563028727775288e+01 0.0000000000000000e+00  -7.6686363245879888e-03 -1.2351930980484369e+01 0.0000000000000000e+00  -2.2768106571083736e-02 -1.1555246200959536e+01 0.0000000000000000e+00  0.0000000000000000e+00 0.0000000000000000e+00 0.0000000000000000e+00  0.0000000000000000e+00 0.0000000000000000e+00 0.0000000000000000e+00  -3.1413855910540633e-03 -1.1594595865205745e+01 0.0000000000000000e+00  3.7672305188219636e-03 -1.2378727337681047e+01 0.0000000000000000e+00  4.6592279804024301e-04 -1.1576102945760713e+01 0.0000000000000000e+00  3.7734420504114102e-02 -2.3815669497908969e-03 0.0000000000000000e+00  2.8512839881428484e-02 -4.0392972553305248e-03 0.0000000000000000e+00  1.7043241303508448e-02 -5.6139827097318722e-03 0.0000000000000000e+00  1.6803558493575790e-03 1.1544226644444947e-02 0.0000000000000000e+00  1.3564438887272821e-04 4.8961002419618043e-03 0.0000000000000000e+00  -2.7617945740808798e-03 3.6593926718467163e-03 0.0000000000000000e+00  -5.3913108391137636e-03 3.8081629898464617e-03 0.0000000000000000e+00  -6.5116783757806643e-03 4.2247624643361650e-03 0.0000000000000000e+00  -2.4051178952079456e-02 4.7322187792798367e-03 0.0000000000000000e+00  -2.8432395180524456e-02 1.4173730266516070e-02 0.0000000000000000e+00  -3.1706680176517690e-02 2.2297134433340665e-02 0.0000000000000000e+00  -1.6881952791833198e-02 -1.1564408467819204e+01 0.0000000000000000e+00  -7.9262167298999060e-03 -1.2353364122241338e+01 0.0000000000000000e+00  -1.4460359441922390e-02 -1.1558763937336339e+01 0.0000000000000000e+00  0.0000000000000000e+00 0.0000000000000000e+00 0.0000000000000000e+00  0.0000000000000000e+00 0.0000000000000000e+00 0.0000000000000000e+00  -2.4292063714586554e-04 -1.1605951558591864e+01 0.0000000000000000e+00  1.3692660973333192e-02 -1.2388516603127359e+01 0.0000000000000000e+00  1.7178692944463270e-02 -1.1585336871080891e+01 0.0000000000000000e+00  4.0480616772000134e-02 7.6347892074739637e-03 0.0000000000000000e+00  4.5239713665668174e-02 -4.5360886040591505e-03 0.0000000000000000e+00  5.4285396557852660e-02 -2.3806051388199852e-02 0.0000000000000000e+00  1.8201135560914947e-02 2.5299756230799931e-02 0.0000000000000000e+00  4.9296652732723056e-03 2.5687606086208077e-02 0.0000000000000000e+00  -4.3610267778604155e-03 2.6554042060236340e-02 0.0000000000000000e+00  -1.2440151739168761e-02 2.4104291450883820e-02 0.0000000000000000e+00  -2.0660036933809314e-02 1.8059616178269022e-02 0.0000000000000000e+00  -3.5504765399092891e-02 1.8219540963209649e-03 0.0000000000000000e+00  -4.2150033531013820e-02 1.1227235775411241e-02 0.0000000000000000e+00  -4.8948089329933428e-02 1.6753639721198196e-02 0.0000000000000000e+00  -2.9264780323827639e-02 -1.1567744391499794e+01 0.0000000000000000e+00  -1.3310208916677250e-02 -1.2364439176337932e+01 0.0000000000000000e+00  -1.1864438752131105e-02 -1.1570428371119775e+01 0.0000000000000000e+00  0.0000000000000000e+00 0.0000000000000000e+00 0.0000000000000000e+00  0.0000000000000000e+00 0.0000000000000000e+00 0.0000000000000000e+00  4.0009646897586643e-03 -1.1629554490384136e+01 0.0000000000000000e+00  2.5316993304442460e-02 -1.2410994671160788e+01 0.0000000000000000e+00  3.7155857798204101e-02 -1.1609899789651942e+01 0.0000000000000000e+00  4.8555162902197982e-02 1.6622741744984109e-02 0.0000000000000000e+00  5.2210429154764745e-02 5.3857170226020773e-03 0.0000000000000000e+00  5.4142293158379630e-02 -1.3846374362212104e-03 0.0000000000000000e+00  4.5054055456336436e-02 5.3914627647819117e-02 0.0000000000000000e+00  2.0611224950582565e-02 5.7441227931694760e-02 0.0000000000000000e+00  -1.4587430767266526e-03 5.9387161523339393e-02 0.0000000000000000e+00  -2.1816099857064019e-02 5.7568956593896478e-02 0.0000000000000000e+00  -3.9815096365036780e-02 5.3851991143163684e-02 0.0000000000000000e+00  -5.0776842759226108e-02 -7.8065165732202684e-03 0.0000000000000000e+00  -5.4289597198841133e-02 3.8467705272136818e-03 0.0000000000000000e+00  -5.6225426216637807e-02 1.7057168747244958e-02 0.0000000000000000e+00  -4.8598804687151109e-02 -1.1593878261771014e+01 0.0000000000000000e+00  -2.1025459039752951e-02 -1.2388411479726232e+01 0.0000000000000000e+00  -1.3209772601915458e-02 -1.1596536010389723e+01 0.0000000000000000e+00  0.0000000000000000e+00 0.0000000000000000e+00 0.0000000000000000e+00  0.0000000000000000e+00 0.0000000000000000e+00 0.0000000000000000e+00  8.8034180647274130e-03 -1.1667312624840273e+01 0.0000000000000000e+00  3.7115504083604714e-02 -1.2448221770610473e+01 0.0000000000000000e+00  5.5811554502849914e-02 -1.1650774750764720e+01 0.0000000000000000e+00  6.3613761566994872e-02 2.1325011342479230e-02 0.0000000000000000e+00  6.7059394397565905e-02 1.1651261589239296e-02 0.0000000000000000e+00  6.9026987478061810e-02 1.6685393370755625e-03 0.0000000000000000e+00  5.8892887767363018e-02 1.0951081718198197e-01 0.0000000000000000e+00  2.7912536240717427e-02 1.0917899639020655e-01 0.0000000000000000e+00  -1.7083606781040253e-03 1.0998086632177144e-01 0.0000000000000000e+00  -3.0728451903632378e-02 1.0819872163696606e-01 0.0000000000000000e+00  -6.0755615797087673e-02 1.0644113065720905e-01 0.0000000000000000e+00  -6.6673181483406549e-02 -1.0991525302300237e-02 0.0000000000000000e+00  -6.9769820572767108e-02 -3.9814413646026162e-04 0.0000000000000000e+00  -7.1508076542971880e-02 9.1208897124245639e-03 0.0000000000000000e+00  -6.6850166530349017e-02 -1.1637626925397416e+01 0.0000000000000000e+00  -3.1715349229470439e-02 -1.2428814212251591e+01 0.0000000000000000e+00  -1.4881155720336882e-02 -1.1637283628346422e+01 0.0000000000000000e+00  0.0000000000000000e+00 0.0000000000000000e+00 0.0000000000000000e+00  0.0000000000000000e+00 0.0000000000000000e+00 0.0000000000000000e+00  1.2975913307366008e-02 -1.1717453509372158e+01 0.0000000000000000e+00  4.6649126011275438e-02 -1.2498102186039976e+01 0.0000000000000000e+00  6.9818618493920806e-02 -1.1705314250223882e+01 0.0000000000000000e+00  7.6588558215965288e-02 2.1021027476322958e-02 0.0000000000000000e+00  7.9180449977435674e-02 1.4660486156654025e-02 0.0000000000000000e+00  7.9086052862133133e-02 8.8261692443561794e-03 0.0000000000000000e+00  7.1674506491566869e-02 1.7520135976770526e-01 0.0000000000000000e+00  3.4206847271378973e-02 1.7316079804370277e-01 0.0000000000000000e+00  -2.0730488852779352e-03 1.7428911941554578e-01 0.0000000000000000e+00  -3.7936166983990043e-02 1.7355771548467885e-01 0.0000000000000000e+00  -7.5311252764949210e-02 1.7541774142877203e-01 0.0000000000000000e+00  -8.0980680406571803e-02 -1.0061297720691744e-02 0.0000000000000000e+00  -8.3523300138463083e-02 -3.4433889376768562e-03 0.0000000000000000e+00  -8.3420974988695412e-02 2.7504341200936880e-03 0.0000000000000000e+00  -8.2224351142270891e-02 -1.1696044830522156e+01 0.0000000000000000e+00  -4.2857136041449154e-02 -1.2481870213956874e+01 0.0000000000000000e+00  -1.8250904571964537e-02 -1.1689973230934289e+01 0.0000000000000000e+00  0.0000000000000000e+00 0.0000000000000000e+00 0.0000000000000000e+00  0.0000000000000000e+00 0.0000000000000000e+00 0.0000000000000000e+00  1.5575896572024130e-02 -1.1775438233502992e+01 0.0000000000000000e+00  5.1974252718474896e-02 -1.2555830766905926e+01 0.0000000000000000e+00  7.6618980108497964e-02 -1.1768057899477194e+01 0.0000000000000000e+00  8.3134007162717571e-02 1.7418577734707241e-02 0.0000000000000000e+00  8.4864419705555610e-02 1.6158012280538377e-02 0.0000000000000000e+00  8.3757691090556030e-02 1.5311402748560616e-02 0.0000000000000000e+00  7.6313642755417577e-02 2.5464887524695273e-01 0.0000000000000000e+00  3.6626728244228170e-02 2.4809327125865419e-01 0.0000000000000000e+00  -2.4951213065507977e-03 2.4801742566348808e-01 0.0000000000000000e+00  -4.1361451232922432e-02 2.4834360509814990e-01 0.0000000000000000e+00  -8.2474109349190597e-02 2.5476861240887699e-01 0.0000000000000000e+00  -8.8725412843677728e-02 -5.9655032358388654e-03 0.0000000000000000e+00  -9.0374123888034702e-02 -4.3910971705825820e-03 0.0000000000000000e+00  -8.9123620346660298e-02 -3.1813470972390529e-03 0.0000000000000000e+00  -9.0078385922626347e-02 -1.1763183442801655e+01 0.0000000000000000e+00  -5.0816721841936342e-02 -1.2543005276004529e+01 0.0000000000000000e+00  -2.2329808179995813e-02 -1.1750162002485689e+01 0.0000000000000000e+00  -1.2295606716598288e-11 -4.2083820385121904e-10 0.0000000000000000e+00  0.0000000000000000e+00 0.0000000000000000e+00 0.0000000000000000e+00  1.6055043403106688e-02 -1.1835229306687875e+01 0.0000000000000000e+00  5.2015259820279318e-02 -1.2615266608828414e+01 0.0000000000000000e+00  7.4907522499250825e-02 -1.1832219009102488e+01 0.0000000000000000e+00  8.1140586426882558e-02 1.1901393606304456e-02 0.0000000000000000e+00  8.2023659304273813e-02 1.6074899868492667e-02 0.0000000000000000e+00  8.0134351638825513e-02 2.0557932036071591e-02 0.0000000000000000e+00  7.2876512693601167e-02 3.3553504674333867e-01 0.0000000000000000e+00  3.5045776611576505e-02 3.2453546475547956e-01 0.0000000000000000e+00  -2.7996368838469551e-03 3.2347672966589169e-01 0.0000000000000000e+00  -4.0558738206771167e-02 3.2491371288354254e-01 0.0000000000000000e+00  -8.1119536228982214e-02 3.3603756690727604e-01 0.0000000000000000e+00  -8.7683789731328163e-02 2.7101874204445653e-05 0.0000000000000000e+00  -8.8486914785617737e-02 -3.9074274114825717e-03 0.0000000000000000e+00  -8.6503206508753164e-02 -8.1561298602195569e-03 0.0000000000000000e+00  -8.9021932281941038e-02 -1.1832102254356737e+01 0.0000000000000000e+00  -5.3329977816544083e-02 -1.2605913944946312e+01 0.0000000000000000e+00  -2.5323341462181764e-02 -1.1812193124050200e+01 0.0000000000000000e+00  0.0000000000000000e+00 0.0000000000000000e+00 0.0000000000000000e+00  0.0000000000000000e+00 0.0000000000000000e+00 0.0000000000000000e+00  1.4245630944017417e-02 -1.1890336166105953e+01 0.0000000000000000e+00  4.6570090805092085e-02 -1.2669934272094869e+01 0.0000000000000000e+00  6.4672477962873801e-02 -1.1890778951145192e+01 0.0000000000000000e+00  7.0182332089797059e-02 5.5175540160274121e-03 0.0000000000000000e+00  7.0226184836973474e-02 1.4738984783175150e-02 0.0000000000000000e+00  6.7914750560899462e-02 2.4194418494862719e-02 0.0000000000000000e+00  6.1360145826594333e-02 4.0998045113561221e-01 0.0000000000000000e+00  2.9501798983486382e-02 3.9471868337965987e-01 0.0000000000000000e+00  -3.0327349166774159e-03 3.9263615377748756e-01 0.0000000000000000e+00  -3.5601673983954765e-02 3.9502974721399753e-01 0.0000000000000000e+00  -7.1257112218978833e-02 4.1054100925550779e-01 0.0000000000000000e+00  -7.7449990154782239e-02 6.7798692701702152e-03 0.0000000000000000e+00  -7.7434960463713592e-02 -2.2727500052059490e-03 0.0000000000000000e+00  -7.5041562050105801e-02 -1.1551361580157826e-02 0.0000000000000000e+00  -7.9023333341257995e-02 -1.1895461542334425e+01 0.0000000000000000e+00  -4.9700051387520462e-02 -1.2663896862200259e+01 0.0000000000000000e+00  -2.5984132382308327e-02 -1.1869701498662540e+01 0.0000000000000000e+00  0.0000000000000000e+00 0.0000000000000000e+00 0.0000000000000000e+00  0.0000000000000000e+00 0.0000000000000000e+00 0.0000000000000000e+00  1.0309991158710697e-02 -1.1934705485300405e+01 0.0000000000000000e+00  3.6176960305051492e-02 -1.2713848752596306e+01 0.0000000000000000e+00  4.6997549175163994e-02 -1.1937330521257884e+01 0.0000000000000000e+00  5.1227666987617416e-02 -8.1430535237084938e-04 0.0000000000000000e+00  5.0494465073965419e-02 1.2459417709823114e-02 0.0000000000000000e+00  4.8060012187322455e-02 2.5887868240972538e-02 0.0000000000000000e+00  4.2992790788351345e-02 4.6975149907710279e-01 0.0000000000000000e+00  2.0558536002628792e-02 4.5100239618827026e-01 0.0000000000000000e+00  -3.1919266924720960e-03 4.4805912606508469e-01 0.0000000000000000e+00  -2.7053854220608277e-02 4.5118838126488942e-01 0.0000000000000000e+00  -5.4058710971253005e-02 4.7028877463861951e-01 0.0000000000000000e+00  -5.8995957370492819e-02 1.3368411959319149e-02 0.0000000000000000e+00  -5.8226179693449689e-02 1.9943644785112532e-04 0.0000000000000000e+00  -5.5734589266723242e-02 -1.3117525902907557e-02 0.0000000000000000e+00  -6.1200258881568867e-02 -1.1946617192439376e+01 0.0000000000000000e+00  -4.0334172921558831e-02 -1.2710868873956580e+01 0.0000000000000000e+00  -2.3866704760869942e-02 -1.1916630993300604e+01 0.0000000000000000e+00  0.0000000000000000e+00 0.0000000000000000e+00 0.0000000000000000e+00  0.0000000000000000e+00 0.0000000000000000e+00 0.0000000000000000e+00  4.6657865736064192e-03 -1.1963439913144109e+01 0.0000000000000000e+00  2.1950470947288640e-02 -1.2742191039927844e+01 0.0000000000000000e+00  2.3802781182654761e-02 -1.1966777974424669e+01 0.0000000000000000e+00  2.6307107057715339e-02 -6.3525151500052829e-03 0.0000000000000000e+00  2.4897745797957570e-02 9.5372100198583484e-03 0.0000000000000000e+00  2.2600018472386563e-02 2.5504925108892774e-02 0.0000000000000000e+00  1.9735155106776130e-02 5.0843386381990019e-01 0.0000000000000000e+00  9.1791783705192156e-03 4.8735509388906445e-01 0.0000000000000000e+00  -3.2779661163929419e-03 4.8381500288284801e-01 0.0000000000000000e+00  -1.5879481267993715e-02 4.8738507579731710e-01 0.0000000000000000e+00  -3.1448972907614926e-02 5.0888052940099116e-01 0.0000000000000000e+00  -3.4356282476432978e-02 1.9047692532873663e-02 0.0000000000000000e+00  -3.2931496371369821e-02 3.1984806668293804e-03 0.0000000000000000e+00  -3.0601006796779111e-02 -1.271950419