<?xml version="1.0"?>
<VTKFile type="UnstructuredGrid"  version="0.1"  >
<UnstructuredGrid>
<Piece  NumberOfPoints="589" NumberOfCells="1080">
<Points>
<DataArray  type="Float64"  NumberOfComponents="3"  format="ascii">-9 0 0  -8 0 0  -7 0 0  -6 0 0  -5 0 0  -4 0 0  -3 0 0  -2 0 0  -1 0 0  0 0 0  1 0 0  2 0 0  3 0 0  4 0 0  5 0 0  6 0 0  7 0 0  8 0 0  9 0 0  -9 2 0  -8.00000108188698 1.99999795103829 0  -7.000002343037845 1.999996159394167 0  -6.000004154288752 1.999994834805363 0  -5.000007319383749 1.999994069344782 0  -4.00000413087662 1.999995500373283 0  -3.000000763724993 1.999996896446181 0  -1.999999096725198 1.999998216857545 0  -0.9999987780658712 1.999999237925347 0  7.306823333786182e-07 1.999999610671317 0  1.000000282193985 1.999999101591406 0  2.000000741688652 1.999997750370174 0  3.000002744105651 1.999996017154862 0  4.000006616653569 1.999993893852146 0  5.000012382481222 1.999992176601215 0  6.000007858989202 1.999993013795609 0  7.000004796628986 1.999994813449204 0  8.0000023096033 1.999997247009962 0  9 2 0  -9.000000000004983 4 0  -8.00000144671713 3.99999487283179 0  -7.000002485680704 3.99999045058515 0  -6.000002893195818 3.999987433107835 0  -5.000002759862908 3.999986506641017 0  -3.999997918039204 3.99998689447657 0  -2.999994577980658 3.99999082546533 0  -1.999993585392241 3.999996060752861 0  -0.9999946373076193 4.00000022726139 0  3.200022843226556e-06 4.000001711898538 0  1.000001056632939 3.999999823158019 0  2.00000010816619 3.9999952767146 0  3.000001556925604 3.99998904925868 0  4.000005784003263 3.999982379814763 0  5.000011826062363 3.999978745056287 0  6.000009873411952 3.999982177799652 0  7.000007291885649 3.999987091330238 0  8.000003909482139 3.999993216361736 0  9 4 0  -9 6 0  -8.000003442522482 5.999988975072363 0  -7.000005154124076 5.999979122823919 0  -6.000003795492892 5.999971667492447 0  -4.999998941808895 5.999967831294171 0  -3.999989341328432 5.999973395056863 0  -2.999984747830752 5.999985744617298 0  -1.999985913139776 5.99999886302952 0  -0.9999897150229983 6.000006332885277 0  6.197535257957152e-06 6.00000768906382 0  1.00000237506888 6.000004669195714 0  1.999999505752475 5.999996653738346 0  2.999998775770784 5.999983187839879 0  4.000001863224015 5.999968877897318 0  5.000011378168844 5.999960834308017 0  6.000014403348916 5.999965418816651 0  7.000012990590458 5.999974523407944 0  8.000007617579808 5.999986551484467 0  9 6 0  -9 8 0  -8.000012361476296 7.999978387213442 0  -7.000020103275181 7.999958208075975 0  -6.00001867783723 7.99994142604719 0  -5.000004010851919 7.999931304833225 0  -3.99998593906843 7.999958120912932 0  -2.999987702887391 7.999990074542387 0  -1.999993155927337 8.000006482974502 0  -0.9999931226811951 8.000009417539623 0  1.102949536474167e-05 8.000010424994121 0  1.000013884740918 8.000012005353023 0  2.00001224504094 8.000003615322806 0  3.00000367853884 7.999989366260608 0  4.000001086667153 7.999956104284167 0  5.000021315386912 7.999918889499941 0  6.000036684503853 7.999930580660665 0  7.000034529600516 7.999950262482345 0  8.000020303299607 7.999974205597151 0  9 8 0  -9 10 0  -8.000039756236164 9.999962067165624 0  -7.00007171797145 9.999923708623896 0  -6.000086522952135 9.999884547528653 0  -5.000071032915297 9.999844316106568 0  -4.000043206730124 9.999928752199772 0  -3.000044923421525 10.00000220211721 0  -2.000032178276899 9.999993031469419 0  -1.000007512172972 9.999990133715229 0  1.16300990751031e-05 9.999989425844117 0  1.000031167637562 9.999989144776833 0  2.00005772036995 9.999987378613383 0  3.000080397651966 10.0000160271393 0  4.000077392103394 9.999931003513959 0  5.000114785407606 9.99981980918745 0  6.000129053525519 9.999863786507543 0  7.000104348802499 9.999908960214238 0  8.000057293318205 9.999954457061003 0  9 10 0  -9 12 0  -8.000098315992084 11.99994745484996 0  -7.000191938332977 11.99989242757713 0  -6.00027550735107 11.99983196442487 0  -5.000342317610684 11.99976197813965 0  -4.000328175936609 11.99991231668969 0  -3.000337767110327 12.00006090814247 0  -2.000209720040541 12.00004694564693 0  -1.00007156820559 12.00004137504938 0  6.941502556971647e-05 12.00004393185478 0  1.00020969436516 12.00005524635288 0  2.000345708817645 12.00007767167001 0  3.00047002820467 12.00011677561104 0  4.000454040261952 11.99991289113042 0  5.000467001321511 11.99970718601071 0  6.000377271729586 11.99979222277536 0  7.000263549474619 11.99986637526583 0  8.000135221133823 11.99993453035829 0  9 12 0  -9 14 0  -8.000175624300743 13.99994277634472 0  -7.000352330179102 13.99988289924173 0  -6.000531455118396 13.99981748725405 0  -5.000715021719046 13.99974321498346 0  -4.000716670798411 13.99991387615864 0  -3.000714641782365 14.00008652426844 0  -2.000427731265277 14.00006730245522 0  -1.000146965204826 14.00006011591255 0  0.0001300358221485111 14.00006341741308 0  1.000405340391854 14.00007691949384 0  2.000680578596839 14.00010126779945 0  3.000956623338209 14.00013769700468 0  4.00095800830235 13.99990394970732 0  5.000962360417632 13.99967125021287 0  6.000721366272882 13.99976422763832 0  7.000481118364006 13.99984779906272 0  8.000240684447716 13.99992535617724 0  9 14 0  -9 16 0  -8.000248571694039 15.9999487149684 0  -7.000502988277542 15.99989551770556 0  -6.00076954291575 15.99983846227578 0  -5.001055465750665 15.99977556985158 0  -4.001065961151911 15.99991333572903 0  -3.001053045113202 16.00005000972356 0  -2.000621262178871 16.000039550088 0  -1.000207337682602 16.0000369311324 0  0.0001974583671598238 16.00004212580595 0  1.000601319412778 16.00005523384164 0  2.001012349887867 16.00007656757606 0  3.001439081995942 16.00010661028741 0  4.001451169445656 15.99989699924558 0  5.001442499065737 15.99968694728965 0  6.001062314639298 15.99977387941724 0  7.000699331759942 15.99985329624208 0  8.000347089045091 15.99992784395703 0  9 16 0  -9 18 0  -8.000298101708722 17.9999623032313 0  -7.000605030950921 17.99992357233623 0  -6.000930051569282 17.99988279119192 0  -5.001283308275172 17.99983898837274 0  -4.001299322012001 17.99991113736294 0  -3.001281239274809 17.9999828815686 0  -2.000743489568867 17.99998046230783 0  -1.000231250332351 17.99998252106971 0  0.0002686322325580262 17.99998921042852 0  1.000768697475694 18.00000067535365 0  2.001281468114977 18.00001706126459 0  3.001820050738135 18.00003849011636 0  4.001838399794973 17.99989141300414 0  5.001822433567549 17.99974437959589 0  6.001334268950357 17.99981360809627 0  7.000874464005911 17.999878279795 0  8.000432807825065 17.99993990253946 0  9 18 0  -9 20 0  -8.000312288665068 19.99998002742111 0  -7.000634641065303 19.99995982902249 0  -6.000977502582489 19.99993920991784 0  -5.001352084815397 19.99991803841605 0  -4.001370311964811 19.9999085076524 0  -3.001349986760873 19.99989857479672 0  -2.000763825844065 19.99990348311655 0  -1.000205802919577 19.99990961167728 0  0.0003390843612840131 19.99991721524386 0  1.000885341117803 19.99992645540664 0  2.001447502389218 19.99993740497043 0  3.002040666607984 19.99995003970954 0  4.002061999735876 19.99988793945379 0  5.002042167869731 19.99982580878075 0  6.001492588380248 19.99987156935964 0  7.00097687731477 19.99991546197195 0  8.000483065550052 19.99995806122311 0  8.999999999976781 19.99999999999061 0  -9 22 0  -8.000286189009284 21.99999865457122 0  -7.000582145972439 21.99999776907566 0  -6.000897953966179 21.9999978395302 0  -5.00124432273792 21.99999943490581 0  -4.001261934156918 21.99990533928337 0  -3.001242356429981 21.99981085089885 0  -2.000671768254704 21.9998216295195 0  -1.000127882439468 21.99983080985055 0  0.0004040674869093435 21.99983868206881 0  1.000938455637358 21.9998454063251 0  2.001489705047233 21.99985101592993 0  3.002072731320268 21.99985541554032 0  4.002093987473219 21.99988606144829 0  5.002073323786393 21.99991661445706 0  6.001515244968621 21.99993700214243 0  7.000991577084042 21.9999578165667 0  8.000490280782257 21.99997885957423 0  9 22 0  -9 24 0  -8.000220982366548 24.00001544267475 0  -7.000450172710762 24.00003188653605 0  -6.000696038381028 24.00005037112563 0  -5.000967507987014 24.00007201404751 0  -4.000982237183499 23.9999017992253 0  -3.000965777688837 23.99973122553317 0  -2.000473059719428 23.99974616162854 0  -1.000002288952325 23.99975723401582 0  0.0004593072304111953 23.9997647348422 0  1.000924215920684 23.99976881016267 0  2.001404982796933 23.99976946102831 0  3.001914556706672 23.99976654299006 0  4.001933217941742 23.99988559066314 0  5.001914297394365 24.00000451327345 0  6.001400080252146 24.00000072556848 0  7.000916683553801 23.99999925478052 0  8.000453384535499 23.99999926618358 0  9 24 0  -9 26 0  -8.00012286902291 26.00002822754424 0  -7.000251440480683 26.00005784231378 0  -6.000391581879379 26.00009027185435 0  -5.000549470351801 26.00012702498591 0  -4.000559592655614 25.99989807496571 0  -3.000548069984813 25.99966880309838 0  -2.000186722050039 25.99968613279028 0  -0.9998400671131997 25.99969792875083 0  0.000501306400024017 25.9997044744726 0  1.000846633673099 25.99970589698168 0  2.001205213558566 25.99970216705443 0  3.001586650730665 25.99969309967915 0  4.001600746711788 25.99988630512993 0  5.001585593946613 26.00007934788258 0  6.001161464395544 26.00005517893773 0  7.000761296993198 26.00003476273505 0  8.000376783324938 26.00001678228009 0  9 26 0  -9 28 0  -8.000001893912168 28.00003546513122 0  -7.000006334745084 28.00007254126228 0  -6.000015951723042 28.00011288117748 0  -5.000033530757557 28.00015822143115 0  -4.00003789516677 27.99989438175884 0  -3.000032538518481 27.99963026373748 0  -1.999841768439468 27.99964822134991 0  -0.9996567898922002 27.99965960722026 0  0.0005274968387223299 27.9996646905838 0  1.000716126500063 27.99966357662876 0  2.000914199705652 27.99965620692134 0  3.001127014018178 27.99964235924094 0  4.001135155320644 27.99988798885085 0  5.001125242000698 28.00013342284804 0  6.00082683388457 28.00009461961696 0  7.000543192882606 28.00006052703619 0  8.00026921
[...]
<PointData  Vectors="f_44-0"> 
<DataArray  type="Float64"  Name="f_44-0"  NumberOfComponents="3" format="ascii">0.0000000000000000e+00 0.0000000000000000e+00 0.0000000000000000e+00  5.2775861801518611e-07 -1.2486332985513988e+01 0.0000000000000000e+00  5.1558326806000197e-07 -1.3040804850280255e+01 0.0000000000000000e+00  5.9893980846228632e-07 -1.2428887485307364e+01 0.0000000000000000e+00  0.0000000000000000e+00 0.0000000000000000e+00 0.0000000000000000e+00  0.0000000000000000e+00 0.0000000000000000e+00 0.0000000000000000e+00  0.0000000000000000e+00 0.0000000000000000e+00 0.0000000000000000e+00  0.0000000000000000e+00 0.0000000000000000e+00 0.0000000000000000e+00  0.0000000000000000e+00 0.0000000000000000e+00 0.0000000000000000e+00  0.0000000000000000e+00 0.0000000000000000e+00 0.0000000000000000e+00  0.0000000000000000e+00 0.0000000000000000e+00 0.0000000000000000e+00  0.0000000000000000e+00 0.0000000000000000e+00 0.0000000000000000e+00  0.0000000000000000e+00 0.0000000000000000e+00 0.0000000000000000e+00  0.0000000000000000e+00 0.0000000000000000e+00 0.0000000000000000e+00  0.0000000000000000e+00 0.0000000000000000e+00 0.0000000000000000e+00  5.3670708503011526e-07 -1.2477714920942866e+01 0.0000000000000000e+00  5.1860727030223894e-07 -1.3034415478974823e+01 0.0000000000000000e+00  6.0154936382204834e-07 -1.2423539382186325e+01 0.0000000000000000e+00  0.0000000000000000e+00 0.0000000000000000e+00 0.0000000000000000e+00  0.0000000000000000e+00 0.0000000000000000e+00 0.0000000000000000e+00  -4.6478052847833823e-02 -1.2464837740748258e+01 0.0000000000000000e+00  -2.0727113703972285e-02 -1.3048831415266813e+01 0.0000000000000000e+00  -2.0168886674559867e-02 -1.2456405951581180e+01 0.0000000000000000e+00  8.5800807709314453e-04 2.9761323395646359e-04 0.0000000000000000e+00  6.7063561833413015e-04 1.2475222978214129e-04 0.0000000000000000e+00  3.2524285894536232e-04 9.8803440479653995e-05 0.0000000000000000e+00  1.8233365408534997e-04 1.2503513544476373e-04 0.0000000000000000e+00  1.1690864409971853e-04 1.1549111123617951e-04 0.0000000000000000e+00  1.1446742233592512e-04 5.9949636087214901e-05 0.0000000000000000e+00  1.1026249770307168e-04 -4.6163916382104605e-06 0.0000000000000000e+00  6.4938474794523407e-05 -5.0810042106466917e-05 0.0000000000000000e+00  -8.4255508624582270e-05 -1.4357462631102942e-04 0.0000000000000000e+00  -3.6070783894306035e-04 -1.2411636157936315e-04 0.0000000000000000e+00  -7.7623216714718223e-04 -4.7112936527665585e-04 0.0000000000000000e+00  -4.7988942774766251e-02 -1.2460568671365024e+01 0.0000000000000000e+00  -2.1873867807750004e-02 -1.3045438926793169e+01 0.0000000000000000e+00  -2.1990011896993327e-02 -1.2452517661530537e+01 0.0000000000000000e+00  0.0000000000000000e+00 0.0000000000000000e+00 0.0000000000000000e+00  0.0000000000000000e+00 0.0000000000000000e+00 0.0000000000000000e+00  -1.6236055596249428e-02 -1.2461407021620163e+01 0.0000000000000000e+00  -3.5302757247761572e-02 -1.3049008292426860e+01 0.0000000000000000e+00  -2.6063049222339350e-02 -1.2457872571347860e+01 0.0000000000000000e+00  1.6151785684043386e-04 5.5091945649754634e-04 0.0000000000000000e+00  6.8957149600061787e-05 8.4459933307754658e-04 0.0000000000000000e+00  -9.6295253461992089e-05 8.5584567271067107e-04 0.0000000000000000e+00  -1.6720864300128507e-04 5.2727761592500841e-04 0.0000000000000000e+00  -1.6434787783791067e-04 8.4431541531438132e-05 0.0000000000000000e+00  -4.5299129089929475e-05 -1.8923746037442340e-04 0.0000000000000000e+00  1.2280557619388557e-04 -1.2908287668060187e-04 0.0000000000000000e+00  3.3792735299794567e-04 -1.5084648128920392e-05 0.0000000000000000e+00  3.0973261660467835e-04 1.6925602465199093e-04 0.0000000000000000e+00  4.4950341670891485e-05 6.3784417801097720e-04 0.0000000000000000e+00  -3.1472889672785160e-04 9.9907217033484296e-04 0.0000000000000000e+00  -1.7135152907385424e-02 -1.2452124681972057e+01 0.0000000000000000e+00  -3.6034812777637350e-02 -1.3038432427916112e+01 0.0000000000000000e+00  -2.7537402450395598e-02 -1.2446555578917870e+01 0.0000000000000000e+00  0.0000000000000000e+00 0.0000000000000000e+00 0.0000000000000000e+00  0.0000000000000000e+00 0.0000000000000000e+00 0.0000000000000000e+00  -2.5058356714389553e-03 -1.2453819681249145e+01 0.0000000000000000e+00  -1.1238943519439173e-02 -1.3030576989693408e+01 0.0000000000000000e+00  -1.7233273588593129e-02 -1.2435135065548218e+01 0.0000000000000000e+00  -1.9087658077043238e-04 2.3670653783718718e-03 0.0000000000000000e+00  -5.6542180047039069e-04 2.4230109591589577e-03 0.0000000000000000e+00  -8.2140341566956025e-04 1.4711118745707396e-03 0.0000000000000000e+00  -8.5789466988617300e-04 -1.2289417788367550e-04 0.0000000000000000e+00  -4.2757142174659545e-04 -9.4769678848686428e-04 0.0000000000000000e+00  6.1672240929850047e-05 -7.9464417998745544e-04 0.0000000000000000e+00  4.8353214274106620e-04 -5.1553636436771800e-04 0.0000000000000000e+00  6.2911094717463321e-04 -7.1153756360694726e-05 0.0000000000000000e+00  8.0256924077975805e-04 7.2120537456369174e-04 0.0000000000000000e+00  7.8893019737107789e-04 1.0280135528766032e-03 0.0000000000000000e+00  -1.9834148253458416e-05 9.0615748823419493e-04 0.0000000000000000e+00  -4.1580777133294229e-03 -1.2445468823430874e+01 0.0000000000000000e+00  -1.7590534637692151e-02 -1.3028397922716270e+01 0.0000000000000000e+00  -2.5145301459161943e-02 -1.2439387827883811e+01 0.0000000000000000e+00  0.0000000000000000e+00 0.0000000000000000e+00 0.0000000000000000e+00  0.0000000000000000e+00 0.0000000000000000e+00 0.0000000000000000e+00  6.8005094291348110e-04 -1.2461025731351681e+01 0.0000000000000000e+00  -2.5283898794166326e-03 -1.3039278009498268e+01 0.0000000000000000e+00  -1.3079730662590735e-02 -1.2450569090056876e+01 0.0000000000000000e+00  -1.3000624588332163e-03 4.0978573053970469e-03 0.0000000000000000e+00  -2.6700105378637349e-03 2.9997072205198445e-03 0.0000000000000000e+00  -1.0340662204301554e-03 -3.8704615755453896e-04 0.0000000000000000e+00  -4.7118473238559123e-04 -2.2044069554820150e-03 0.0000000000000000e+00  3.7122092944360537e-04 -1.6655927580655173e-03 0.0000000000000000e+00  4.0485237834675858e-04 -1.6039647009053210e-03 0.0000000000000000e+00  7.6894427243783849e-04 -2.6361581698507320e-03 0.0000000000000000e+00  7.7153389101339179e-04 -7.1520056318308278e-04 0.0000000000000000e+00  3.6912287311861160e-03 -8.2384897296219374e-04 0.0000000000000000e+00  4.1415631563468990e-03 -7.5167911829525217e-04 0.0000000000000000e+00  1.6568039111415052e-03 1.5215764868731167e-03 0.0000000000000000e+00  -2.5052038529460191e-03 -1.2448886183670808e+01 0.0000000000000000e+00  -3.2840797062696470e-03 -1.3024791047532341e+01 0.0000000000000000e+00  -1.4385650084685479e-02 -1.2436103609906731e+01 0.0000000000000000e+00  0.0000000000000000e+00 0.0000000000000000e+00 0.0000000000000000e+00  0.0000000000000000e+00 0.0000000000000000e+00 0.0000000000000000e+00  1.9522273715916480e-03 -1.2461730056787369e+01 0.0000000000000000e+00  5.6740271616423773e-03 -1.3034334505144848e+01 0.0000000000000000e+00  5.0809072827302142e-03 -1.2437514060980094e+01 0.0000000000000000e+00  -2.7218350489203527e-03 1.3202120265161755e-02 0.0000000000000000e+00  -2.8181530786273667e-03 6.3985547701780696e-03 0.0000000000000000e+00  2.1564145563064796e-04 5.1845065348665991e-04 0.0000000000000000e+00  3.0434465450083991e-03 -2.6985274083546965e-03 0.0000000000000000e+00  1.5952139648392090e-03 -7.3926086568360948e-04 0.0000000000000000e+00  9.6109110030420620e-04 -3.8853075722670749e-04 0.0000000000000000e+00  3.4350282251663464e-04 -5.2362832957026620e-04 0.0000000000000000e+00  -1.3255120672324842e-03 -6.1523962876754374e-04 0.0000000000000000e+00  3.0567393996544915e-03 -3.1951482800574244e-03 0.0000000000000000e+00  4.7849084422558405e-03 -2.0275500001058300e-04 0.0000000000000000e+00  2.8745413877274183e-03 5.3865770792338149e-03 0.0000000000000000e+00  -6.2881411598516793e-03 -1.2442957866682219e+01 0.0000000000000000e+00  -3.5063021683386553e-03 -1.3022707149622429e+01 0.0000000000000000e+00  -7.0173396927009912e-03 -1.2437058488383069e+01 0.0000000000000000e+00  0.0000000000000000e+00 0.0000000000000000e+00 0.0000000000000000e+00  0.0000000000000000e+00 0.0000000000000000e+00 0.0000000000000000e+00  5.4525418226701412e-03 -1.2470899883832471e+01 0.0000000000000000e+00  1.6073596649908404e-02 -1.3041410367433484e+01 0.0000000000000000e+00  2.0697212530402315e-02 -1.2445144247605930e+01 0.0000000000000000e+00  2.0346048843065748e-02 1.7610226402212322e-02 0.0000000000000000e+00  1.7912679003507778e-02 7.4723645012395789e-03 0.0000000000000000e+00  1.6711009560056757e-02 -7.3842225262432714e-04 0.0000000000000000e+00  4.6445075597832952e-03 5.0282920417295471e-03 0.0000000000000000e+00  9.6686922002800013e-04 7.0188877086923901e-03 0.0000000000000000e+00  -1.9065763790628246e-03 9.2614416922058851e-03 0.0000000000000000e+00  -5.7415037041833646e-03 6.6843182030700563e-03 0.0000000000000000e+00  -1.4516751506810912e-02 -2.3585627977718310e-03 0.0000000000000000e+00  -2.1601061879760297e-02 -9.9711650596252636e-03 0.0000000000000000e+00  -1.8365926907184759e-02 1.8710639206641335e-03 0.0000000000000000e+00  -1.7026786128802967e-02 1.5027515747990996e-02 0.0000000000000000e+00  -1.2552969568102902e-02 -1.2445944343096819e+01 0.0000000000000000e+00  -9.3015718077932921e-03 -1.3033085557932248e+01 0.0000000000000000e+00  -6.3149820149223093e-03 -1.2447984309795080e+01 0.0000000000000000e+00  0.0000000000000000e+00 0.0000000000000000e+00 0.0000000000000000e+00  0.0000000000000000e+00 0.0000000000000000e+00 0.0000000000000000e+00  1.0286171762633514e-02 -1.2492900840582568e+01 0.0000000000000000e+00  2.8230777301306846e-02 -1.3062061437476606e+01 0.0000000000000000e+00  3.9753749969312274e-02 -1.2467496168627910e+01 0.0000000000000000e+00  5.1461427196898668e-02 1.7027693089144962e-02 0.0000000000000000e+00  5.0640189082851110e-02 4.4560543704833923e-03 0.0000000000000000e+00  5.0170898877800303e-02 -9.4395791667989445e-03 0.0000000000000000e+00  4.2669017669977508e-02 2.5279945851394613e-02 0.0000000000000000e+00  2.0186810822032435e-02 3.1166091423525010e-02 0.0000000000000000e+00  6.7594683773671135e-04 3.3964157812625496e-02 0.0000000000000000e+00  -1.6981461474976828e-02 3.2423786477955130e-02 0.0000000000000000e+00  -3.3306425651116682e-02 2.7783575984494140e-02 0.0000000000000000e+00  -5.1971924126594606e-02 -8.0541322605612708e-03 0.0000000000000000e+00  -5.1062920311233204e-02 4.7311721524434403e-03 0.0000000000000000e+00  -5.0559636169638218e-02 1.6884986789485738e-02 0.0000000000000000e+00  -3.6708710607560951e-02 -1.2473572213966699e+01 0.0000000000000000e+00  -1.5472311229122102e-02 -1.3057400386203605e+01 0.0000000000000000e+00  -8.7148505944848378e-03 -1.2474063176358136e+01 0.0000000000000000e+00  0.0000000000000000e+00 0.0000000000000000e+00 0.0000000000000000e+00  0.0000000000000000e+00 0.0000000000000000e+00 0.0000000000000000e+00  1.5235769648805334e-02 -1.2528975400235554e+01 0.0000000000000000e+00  3.9927464612441066e-02 -1.3097455279220616e+01 0.0000000000000000e+00  5.7585641904715136e-02 -1.2506963073381087e+01 0.0000000000000000e+00  7.9082610035587766e-02 1.3306309389326898e-02 0.0000000000000000e+00  7.9068027347640513e-02 2.6040991656589405e-03 0.0000000000000000e+00  7.7701082080581033e-02 -7.9567026807491580e-03 0.0000000000000000e+00  5.6656405774656367e-02 7.8906852190050197e-02 0.0000000000000000e+00  2.7625294189028829e-02 7.7579503229705901e-02 0.0000000000000000e+00  6.9928701061013976e-04 7.8488475034438399e-02 0.0000000000000000e+00  -2.5560745169224134e-02 7.7153927391097651e-02 0.0000000000000000e+00  -5.5016724674861545e-02 7.4920205091461481e-02 0.0000000000000000e+00  -8.0565494776073499e-02 -4.0482110350747377e-03 0.0000000000000000e+00  -8.0536013362215428e-02 6.5686877126251274e-03 0.0000000000000000e+00  -7.9042103072251263e-02 1.7525841943266594e-02 0.0000000000000000e+00  -6.0072956752510558e-02 -1.2519081888311076e+01 0.0000000000000000e+00  -2.7145098440046578e-02 -1.3097311069508388e+01 0.0000000000000000e+00  -1.0932416236864277e-02 -1.2514053197452363e+01 0.0000000000000000e+00  0.0000000000000000e+00 0.0000000000000000e+00 0.0000000000000000e+00  0.0000000000000000e+00 0.0000000000000000e+00 0.0000000000000000e+00  1.9052932942167030e-02 -1.2576505540628377e+01 0.0000000000000000e+00  4.8586244039056675e-02 -1.3144495802281869e+01 0.0000000000000000e+00  7.0119177221027229e-02 -1.2559104938501585e+01 0.0000000000000000e+00  9.8710351464259077e-02 8.2773567503020094e-03 0.0000000000000000e+00  9.9396394982758096e-02 1.7709902998907967e-03 0.0000000000000000e+00  9.8116179485670960e-02 -4.8678335596003073e-03 0.0000000000000000e+00  7.0043935354401538e-02 1.3794557435951915e-01 0.0000000000000000e+00  3.3620144493090268e-02 1.3552340112742470e-01 0.0000000000000000e+00  2.3278881706121664e-04 1.3656380187640815e-01 0.0000000000000000e+00  -3.2778355586705464e-02 1.3631175421580982e-01 0.0000000000000000e+00  -7.0116594246518102e-02 1.3762335075256357e-01 0.0000000000000000e+00  -1.0069187760998088e-01 1.4680137245327387e-03 0.0000000000000000e+00  -1.0125229151018891e-01 8.0065037637134257e-03 0.0000000000000000e+00  -9.9810772812452361e-02 1.4645646228387054e-02 0.0000000000000000e+00  -7.7626420953034375e-02 -1.2576147523984849e+01 0.0000000000000000e+00  -3.8818177977876574e-02 -1.3147166365371248e+01 0.0000000000000000e+00  -1.4657200548998462e-02 -1.2563637214119792e+01 0.0000000000000000e+00  0.0000000000000000e+00 0.0000000000000000e+00 0.0000000000000000e+00  0.0000000000000000e+00 0.0000000000000000e+00 0.0000000000000000e+00  2.0947624591160167e-02 -1.2630511169495222e+01 0.0000000000000000e+00  5.2608903292380507e-02 -1.3197950062245422e+01 0.0000000000000000e+00  7.5246727997486454e-02 -1.2617908656897237e+01 0.0000000000000000e+00  1.0745307950009093e-01 2.7764801885947822e-03 0.0000000000000000e+00  1.0857511136832854e-01 1.4227867847902680e-03 0.0000000000000000e+00  1.0736052271893595e-01 -3.5328691189594205e-05 0.0000000000000000e+00  7.4709172450246483e-02 2.1058267287438681e-01 0.0000000000000000e+00  3.5828737629418385e-02 2.0351533299942362e-01 0.0000000000000000e+00  -4.0223050171317356e-04 2.0344182176020789e-01 0.0000000000000000e+00  -3.6308202705621150e-02 2.0434328498264229e-01 0.0000000000000000e+00  -7.7393924110476686e-02 2.1021654172354232e-01 0.0000000000000000e+00  -1.0971619105510472e-01 7.3838082460561116e-03 0.0000000000000000e+00  -1.1072563034055571e-01 8.6688988577132853e-03 0.0000000000000000e+00  -1.0940268118392801e-01 1.0050108303635808e-02 0.0000000000000000e+00  -8.6032346628576159e-02 -1.2639098818210265e+01 0.0000000000000000e+00  -4.6546381558223687e-02 -1.3202738368529777e+01 0.0000000000000000e+00  -1.8482414676654506e-02 -1.2618245218528800e+01 0.0000000000000000e+00  3.7792479333868005e-11 3.7364364207359335e-11 0.0000000000000000e+00  0.0000000000000000e+00 0.0000000000000000e+00 0.0000000000000000e+00  2.0575917837427734e-02 -1.2685024221416363e+01 0.0000000000000000e+00  5.1347958233762661e-02 -1.3251848403432177e+01 0.0000000000000000e+00  7.2204852038461192e-02 -1.2676826743070301e+01 0.0000000000000000e+00  1.0421644780587015e-01 -2.4708154893065691e-03 0.0000000000000000e+00  1.0554527887444000e-01 1.5883738562383763e-03 0.0000000000000000e+00  1.0457798686876903e-01 5.5687122133019793e-03 0.0000000000000000e+00  7.1396014062626648e-02 2.8461622788146057e-01 0.0000000000000000e+00  3.4224632197455626e-02 2.7318551935468438e-01 0.0000000000000000e+00  -8.9914496786293058e-04 2.7208408613520246e-01 0.0000000000000000e+00  -3.5798195496762983e-02 2.7414337890619822e-01 0.0000000000000000e+00  -7.6243579441162487e-02 2.8469293922945926e-01 0.0000000000000000e+00  -1.0663385277853835e-01 1.2935244865513802e-02 0.0000000000000000e+00  -1.0785160294561742e-01 8.7812969359207568e-03 0.0000000000000000e+00  -1.0677444001018355e-01 4.7187033512032040e-03 0.0000000000000000e+00  -8.4130188380998436e-02 -1.2700753263676459e+01 0.0000000000000000e+00  -4.8216270743601547e-02 -1.3257882925775313e+01 0.0000000000000000e+00  -2.0607898719117498e-02 -1.2672596898299602e+01 0.0000000000000000e+00  0.0000000000000000e+00 0.0000000000000000e+00 0.0000000000000000e+00  0.0000000000000000e+00 0.0000000000000000e+00 0.0000000000000000e+00  1.7949339102345346e-02 -1.2733998448972283e+01 0.0000000000000000e+00  4.4927533199829520e-02 -1.3300232848069378e+01 0.0000000000000000e+00  6.1354061124050500e-02 -1.2729385976844481e+01 0.0000000000000000e+00  8.9490498315450182e-02 -6.8411229906800560e-03 0.0000000000000000e+00  9.0842765956851743e-02 2.1683547520078392e-03 0.0000000000000000e+00  9.0216583916619103e-02 1.1116748396339190e-02 0.0000000000000000e+00  6.0307109008781799e-02 3.5279066050527591e-01 0.0000000000000000e+00  2.8986241036536110e-02 3.3724286913130314e-01 0.0000000000000000e+00  -1.2763713459244866e-03 3.3507696789957764e-01 0.0000000000000000e+00  -3.1359419310208157e-02 3.3809637538080872e-01 0.0000000000000000e+00  -6.6833821620668241e-02 3.5301811827057999e-01 0.0000000000000000e+00  -9.1969364109181398e-02 1.7531278113073465e-02 0.0000000000000000e+00  -9.3208834005276325e-02 8.4232851305600289e-03 0.0000000000000000e+00  -9.2484030768428219e-02 -6.1413157564726864e-04 0.0000000000000000e+00  -7.2548155946752582e-02 -1.2754546577211777e+01 0.0000000000000000e+00  -4.3446032626300313e-02 -1.3306472683945049e+01 0.0000000000000000e+00  -2.0085951866690058e-02 -1.2720892140317964e+01 0.0000000000000000e+00  0.0000000000000000e+00 0.0000000000000000e+00 0.0000000000000000e+00  0.0000000000000000e+00 0.0000000000000000e+00 0.0000000000000000e+00  1.3365068752551034e-02 -1.2772050633906531e+01 0.0000000000000000e+00  3.4095462810734514e-02 -1.3337826385334219e+01 0.0000000000000000e+00  4.3978016485996321e-02 -1.2769891413949244e+01 0.0000000000000000e+00  6.5032282275806333e-02 -9.8834059631450494e-03 0.0000000000000000e+00  6.6252340186947770e-02 3.0623127505488147e-03 0.0000000000000000e+00  6.6028440189651094e-02 1.5966998321130448e-02 0.0000000000000000e+00  4.2700799548952034e-02 4.0759723018390553e-01 0.0000000000000000e+00  2.0645136406944840e-02 3.8875084646266389e-01 0.0000000000000000e+00  -1.5322112869102838e-03 3.8564406551252317e-01 0.0000000000000000e+00  -2.3546855623578680e-02 3.8935335737019733e-01 0.0000000000000000e+00  -5.0370185766930121e-02 4.0787700607783589e-01 0.0000000000000000e+00  -6.7513679300804735e-02 2.0724992562914088e-02 0.0000000000000000e+00  -6.8621249787089736e-02 7.6942346560574821e-03 0.0000000000000000e+00  -6.8306504184630940e-02 -5.2846802556864260e-03 0.0000000000000000e+00  -5.2936469412283284e-02 -1.2794863205437416e+01 0.0000000000000000e+00  -3.2988538566970552e-02 -1.3343331962106573e+01 0.0000000000000000e+00  -1.6793321717466666e-02 -1.2757910936635499e+01 0.0000000000000000e+00  0.0000000000000000e+00 0.0000000000000000e+00 0.0000000000000000e+00  0.0000000000000000e+00 0.0000000000000000e+00 0.0000000000000000e+00  7.3361433019310833e-03 -1.2795057552703227e+01 0.0000000000000000e+00  2.0064467368428814e-02 -1.3360587398102322e+01 0.0000000000000000e+00  2.2036111094561245e-02 -1.2794016096740533e+01 0.0000000000000000e+00  3.3553362530064954e-02 -1.1307180512871183e-02 0.0000000000000000e+00  3.4518101116916958e-02 4.1654676220487510e-03 0.0000000000000000e+00  3.4718309035981665e-02 1.9617442092682114e-02 0.0000000000000000e+00  2.0474129213342050e-02 4.4313887165956573e-01 0.0000000000000000e+00  1.0089565106737012e-02 4.2218184343755966e-01 0.0000000000000000e+00  -1.6739374348366666e-03 4.1837518294782089e-01 0.0000000000000000e+00  -1.3264981097811211e-02 4.2244191082644778e-01 0.0000000000000000e+00  -2.8723940280995564e-02 4.4341457647464971e-01 0.0000000000000000e+00  -3.6004588067194483e-02 2.2229478455622217e-02 0.0000000000000000e+00  -3.6860132383619765e-02 6.6993974696012417e-03 0.0000000000000000e+00  -3.6978073608640888e-02 -8.7999011777