<?xml version="1.0"?>
<VTKFile type="UnstructuredGrid"  version="0.1"  >
<UnstructuredGrid>
<Piece  NumberOfPoints="589" NumberOfCells="1080">
<Points>
<DataArray  type="Float64"  NumberOfComponents="3"  format="ascii">-9 0 0  -8 0 0  -7 0 0  -6 0 0  -5 0 0  -4 0 0  -3 0 0  -2 0 0  -1 0 0  0 0 0  1 0 0  2 0 0  3 0 0  4 0 0  5 0 0  6 0 0  7 0 0  8 0 0  9 0 0  -9 2 0  -8.000000759061152 1.999999229491186 0  -7.000001619586127 1.999998504963985 0  -6.000002750097321 1.999997857787471 0  -5.000004477549866 1.999997282336197 0  -4.00000320002687 1.999998100516785 0  -3.000001767496238 1.999998618323843 0  -2.000000893387266 1.999998991227945 0  -1.000000383896302 1.999999276937722 0  -9.814911194914624e-08 1.999999398936226 0  1.00000016792242 1.999999321317853 0  2.000000607994794 1.999999059443478 0  3.000001365322703 1.999998709422521 0  4.00000250773151 1.999998272707018 0  5.000004055296158 1.999997938216467 0  6.000002475972721 1.999998212697506 0  7.000001452669504 1.999998696999522 0  8.000000679732258 1.9999993153376 0  9 2 0  -9 4 0  -8.000001112265402 3.99999827505879 0  -7.000002159225874 3.999996700527797 0  -6.000003112425919 3.999995428675849 0  -5.000003997853793 3.999994616558574 0  -4.000002430484749 3.999994862425543 0  -3.00000119262043 3.999995916359246 0  -2.000000462273508 3.999997282679329 0  -1.000000173752484 3.999998348937151 0  -1.463463625178693e-07 3.999998782797775 0  0.9999998647274313 3.999998475459383 0  2.000000105209235 3.999997593410413 0  3.000000813047611 3.999996371212896 0  4.000002032993696 3.999995125497975 0  5.000003511336509 3.99999460611275 0  6.000002727858769 3.999995586113237 0  7.000001903872205 3.999996857857865 0  8.000000986642384 3.999998365380906 0  9 4 0  -9 6 0  -8.000001726687239 5.999996718994598 0  -7.000003073907902 5.999993685383301 0  -6.000003745845733 5.999991160631733 0  -5.000003647228095 5.99998941126503 0  -4.000001091264973 5.999990793620534 0  -2.999999665605991 5.99999373374548 0  -1.999999512112933 5.999996817336742 0  -0.9999999164236052 5.999998564634888 0  -3.426243382438336e-07 5.999998959634302 0  0.9999993373436035 5.999998395821264 0  1.999999240027113 5.999996853823383 0  2.999999514462171 5.99999429788098 0  4.000000473231258 5.999991653767259 0  5.000002691695436 5.999990385891304 0  6.000003141782309 5.999991792558714 0  7.000002728047035 5.999994075610741 0  8.000001571199958 5.999996907048474 0  9 6 0  -9 8 0  -8.000003858950986 7.999994173386868 0  -7.000006689713961 7.999988634834238 0  -6.000007461489664 7.999983791080377 0  -5.000005204557493 7.999980342853401 0  -4.000000924676905 7.999986589814177 0  -3.000001105399695 7.99999394108765 0  -2.000002077623233 7.999997647987417 0  -1.000001722867664 7.999998262670079 0  -4.084080743086755e-07 7.999998452542539 0  1.00000071741297 7.999998714997148 0  2.000000870864116 7.999997175377871 0  2.99999969034371 7.999994412773502 0  3.99999980159602 7.999988164462438 0  5.000004165149161 7.99998124314906 0  6.000007010978847 7.999984493507143 0  7.000006524648689 7.999989099854436 0  8.000003813148913 7.999994402688819 0  9 8 0  -9 10 0  -8.000010103836559 9.999990475648456 0  -7.000018541322463 9.999980805257048 0  -6.000023291824709 9.999970839694104 0  -5.000021478234199 9.999960420703733 0  -4.000015201039577 9.99997937714199 0  -3.000015147957335 9.999995856323723 0  -2.000011634953097 9.999993726635537 0  -1.000005626044697 9.99999304336591 0  -9.83813396228861e-07 9.999992885872738 0  1.000003624723065 9.999992845925847 0  2.000009449937181 9.99999256651008 0  3.000015173474324 9.999997599900619 0  4.000015573731742 9.999982055993234 0  5.000022452410271 9.999961992282349 0  6.000024208562813 9.999971770703432 0  7.000019221768738 9.999981338270986 0  8.000010461582026 9.999990720504714 0  9 10 0  -9 12 0  -8.000023013581963 11.99998736227655 0  -7.00004513999811 11.99997415670292 0  -6.00006537706958 11.99995970258093 0  -5.000082500859445 11.99994304906237 0  -4.00007976459624 11.9999755944651 0  -3.000081782164257 12.00000781603812 0  -2.000055532630972 12.0000038603218 0  -1.000027596549429 12.00000172998978 0  9.280912339557431e-07 12.00000127072982 0  1.000029759808044 12.00000253198381 0  2.000058741611773 12.00000592973287 0  3.000087238796464 12.00001253175288 0  4.000085330070797 11.99997793403564 0  5.000086925949194 11.99994312175199 0  6.000068376794816 11.99995989175453 0  7.000047011867326 11.99997431830551 0  8.000023915210217 11.99998744945571 0  9 12 0  -9 14 0  -8.000039470953411 13.99998652051378 0  -7.00007929442546 13.99997250269775 0  -6.000119912700251 13.99995736356388 0  -5.00016199294929 13.99994043596502 0  -4.000162720819994 13.99997598887203 0  -3.000162097597805 14.00001206702833 0  -2.00010617847568 14.00000669292151 0  -1.000051922186481 14.00000373268889 0  1.611861304954244e-06 14.00000277385688 0  1.000055295936877 14.00000367246291 0  2.000109974456396 14.00000647647886 0  3.000166459050098 14.0000113500143 0  4.000167782613953 13.99997584518422 0  5.000167689242952 13.99994063443159 0  6.000123805572398 13.99995738744905 0  7.000081727385958 13.999972480438 0  8.000040642101123 13.99998650110101 0  9 14 0  -9 16 0  -8.000054516926351 15.99998783218312 0  -7.000110267484863 15.99997533420939 0  -6.000168596983132 15.99996217876959 0  -5.000231085182454 15.99994805357913 0  -4.000233412584358 15.99997576976457 0  -3.000230734681087 16.00000329199925 0  -2.000150176420326 15.99999987107186 0  -1.000073360392138 15.99999773061081 0  1.695513240023908e-06 15.99999684796632 0  1.000076855774247 15.99999719202071 0  2.000153986187824 15.99999874586121 0  3.000235081426053 16.00000149636397 0  4.000238015103903 15.99997428384367 0  5.000235818739129 15.99994705281755 0  6.000172008458206 15.99996152367446 0  7.000112468899375 15.99997493218382 0  8.000055594818592 15.99998763996462 0  9 16 0  -9 18 0  -8.000064627075677 17.99999046447828 0  -7.000130922506045 17.99998079565449 0  -6.000200642761696 17.99997087308643 0  -5.000275721453393 17.99996060462097 0  -4.000278836741015 17.99997515058615 0  -3.000275487813844 17.99998968023254 0  -2.000179209301471 17.99998792785741 0  -1.000087759996116 17.99998669796361 0  1.361646389612816e-06 17.99998601597695 0  1.00009053666738 17.99998587310614 0  2.000182142305152 17.9999862292103 0  3.000278666639324 17.99998700671873 0  4.000282164691771 17.99997307896703 0  5.000279110499724 17.99995922060772 0  6.000203124392172 17.99996990946512 0  7.000132545933473 17.99998018695223 0  8.000065429015118 17.9999901698323 0  9 18 0  -9 20 0  -8.000068062693328 19.99999362991906 0  -7.00013787604381 19.99998727203026 0  -6.000211251122988 19.99998095093786 0  -5.000290118714267 19.9999747165879 0  -4.000293370438518 19.99997448500878 0  -3.000289934031396 19.99997424530939 0  -2.000188929455028 19.99997389502593 0  -1.000092850535061 19.9999734741068 0  8.141946844287871e-07 19.99997302789024 0  1.000094496885483 19.99997255863015 0  2.000190627518631 19.99997202720981 0  3.000291711339279 19.99997135116203 0  4.000295171185799 19.99997230745275 0  5.000291935809408 19.99997331046398 0  6.000212605958042 19.99997994067711 0  7.000138774580442 19.99998662009946 0  8.000068510349074 19.9999933104801 0  8.999999999999455 20 0  -9 22 0  -8.000064494757824 21.99999674652234 0  -7.000130580692614 21.99999360113794 0  -6.000199886146856 21.99999068170601 0  -5.000274112188861 21.99998812571064 0  -4.000277071375828 21.99997379714119 0  -3.000274022505966 21.99995946761503 0  -2.000178950794338 21.99996014467114 0  -1.000088286079603 21.99996035141529 0  1.949168650308548e-07 21.99996013196107 0  1.000088667168274 21.99995949275503 0  2.000179303840363 21.99995840361968 0  3.000274322814168 21.99995679762931 0  4.000277318832567 21.99997182404043 0  5.00027433761059 21.99998688196448 0  6.000200090289975 21.99998977492285 0  7.000130732558843 21.99999300931562 0  8.000064575234976 21.9999964544842 0  9 22 0  -9 24 0  -8.000054561279361 23.99999943070585 0  -7.000110405436159 23.99999902636678 0  -6.000168835772481 23.99999895862424 0  -5.000231194850145 23.99999941236365 0  -4.000233613768991 23.99997315579125 0  -3.000231225051531 23.99994690682567 0  -2.000151347617656 23.99994827525236 0  -1.0000749883564 23.9999489332315 0  -3.892823053679498e-07 23.99994891475648 0  1.000074181579434 23.99994822629702 0  2.000150454661749 23.99994684710777 0  3.000230183341654 23.99994472964841 0  4.00023246930062 23.99997157379464 0  5.000230012230003 23.99999844350242 0  6.000168013326795 23.99999824332361 0  7.000109887184547 23.99999855535154 0  8.000054311022122 23.99999919704001 0  9 24 0  -9 26 0  -8.000039495600541 26.0000014550478 0  -7.000079883916888 26.00000310517001 0  -6.00012206751841 26.00000514954802 0  -5.000166967510097 26.00000779535203 0  -4.000168715759409 25.99997260842081 0  -3.000167135052859 25.99993743397581 0  -2.00010967499809 25.99993924723494 0  -1.000054651357091 25.99994022048672 0  -8.604974381343012e-07 25.99994037711063 0  1.000052888859473 25.99993972236621 0  2.000107786621507 25.99993824325741 0  3.000165032295725 25.99993590931082 0  4.000166481366649 25.99997151509074 0  5.000164688184405 26.00000714172372 0  6.000120442576923 26.0000046628422 0  7.000078840254721 26.00000278271016 0  8.00003898553101 26.00000129448758 0  9 26 0  -9 28 0  -8.000020858146742 28.00000269908578 0  -7.000042179452097 28.00000560693288 0  -6.00006443096593 28.00000893475625 0  -5.000088086818555 28.00001289839301 0  -4.000089105995044 27.99997218346704 0  -3.000088402582247 27.99993148386089 0  -2.000058259851899 27.99993357891953 0  -1.00002938462499 27.99993477392803 0  -1.165569869975523e-06 27.99993508460829 0  1.000027004206315 27.99993451535705 0  2.000055730269553 27.99993305853362 0  3.00008562075376 27.99993069512238 0  4.000086177981453 27.9999716222502 0  5.000085112162346 28.00001256781272 0  6.000062295957434 28.00000868735257 0  7.000040801255379 28.00000544243015 0  8.000020182475383 28.00000261699
[...]
<PointData  Vectors="f_44-0"> 
<DataArray  type="Float64"  Name="f_44-0"  NumberOfComponents="3" format="ascii">0.0000000000000000e+00 0.0000000000000000e+00 0.0000000000000000e+00  -4.9441395274329480e-09 -1.3104669372148989e-01 0.0000000000000000e+00  1.1391166376676795e-08 -1.2854439594347156e-01 0.0000000000000000e+00  9.9838803126852963e-09 -1.0083375411221035e-01 0.0000000000000000e+00  0.0000000000000000e+00 0.0000000000000000e+00 0.0000000000000000e+00  0.0000000000000000e+00 0.0000000000000000e+00 0.0000000000000000e+00  0.0000000000000000e+00 0.0000000000000000e+00 0.0000000000000000e+00  0.0000000000000000e+00 0.0000000000000000e+00 0.0000000000000000e+00  0.0000000000000000e+00 0.0000000000000000e+00 0.0000000000000000e+00  0.0000000000000000e+00 0.0000000000000000e+00 0.0000000000000000e+00  0.0000000000000000e+00 0.0000000000000000e+00 0.0000000000000000e+00  0.0000000000000000e+00 0.0000000000000000e+00 0.0000000000000000e+00  0.0000000000000000e+00 0.0000000000000000e+00 0.0000000000000000e+00  0.0000000000000000e+00 0.0000000000000000e+00 0.0000000000000000e+00  0.0000000000000000e+00 0.0000000000000000e+00 0.0000000000000000e+00  -4.7384988385788966e-09 -1.3142871617830551e-01 0.0000000000000000e+00  1.1747963658978871e-08 -1.2884681481161167e-01 0.0000000000000000e+00  9.7167256045228934e-09 -1.0089071120685890e-01 0.0000000000000000e+00  0.0000000000000000e+00 0.0000000000000000e+00 0.0000000000000000e+00  0.0000000000000000e+00 0.0000000000000000e+00 0.0000000000000000e+00  5.0243037526959540e-05 -1.1317134927992427e-01 0.0000000000000000e+00  4.9320498924466331e-04 -1.2834131166623394e-01 0.0000000000000000e+00  1.0092374292918322e-03 -1.1333171754329917e-01 0.0000000000000000e+00  4.6716792988737518e-05 -1.1878336673746602e-04 0.0000000000000000e+00  9.1222120128057202e-05 -1.4706151834726922e-04 0.0000000000000000e+00  6.3557335668843823e-05 -1.1652918702398004e-04 0.0000000000000000e+00  6.6045148801266456e-05 -5.9805943083136657e-05 0.0000000000000000e+00  4.7322015183310005e-05 -2.8988619929087676e-05 0.0000000000000000e+00  2.2592274201685080e-05 -2.6809700338943776e-05 0.0000000000000000e+00  -3.4647356146263257e-06 -4.9908844121732030e-05 0.0000000000000000e+00  -1.9967433282302910e-05 -8.8228088810895713e-05 0.0000000000000000e+00  -2.8667597107485274e-05 -1.4270561885743735e-04 0.0000000000000000e+00  -2.9856547832435784e-05 -1.6773872979819156e-04 0.0000000000000000e+00  -4.7751893088671156e-05 -2.8647735836382656e-04 0.0000000000000000e+00  1.4264664701264137e-04 -1.1346356919461796e-01 0.0000000000000000e+00  5.9301246907600478e-04 -1.2863341817294258e-01 0.0000000000000000e+00  1.1169225254855724e-03 -1.1355454488096813e-01 0.0000000000000000e+00  0.0000000000000000e+00 0.0000000000000000e+00 0.0000000000000000e+00  0.0000000000000000e+00 0.0000000000000000e+00 0.0000000000000000e+00  3.4172292673530924e-04 -1.1336681180704708e-01 0.0000000000000000e+00  -2.4371783837693070e-05 -1.2730329200112381e-01 0.0000000000000000e+00  4.1529130164760564e-04 -1.1373354626157636e-01 0.0000000000000000e+00  -1.7151270716823751e-04 -2.8190892528721765e-04 0.0000000000000000e+00  -4.9388198075353457e-05 -1.6560654309130527e-04 0.0000000000000000e+00  3.0781981087315814e-06 -2.8116260714511489e-05 0.0000000000000000e+00  2.0241951659173304e-05 1.9904942817327215e-05 0.0000000000000000e+00  -7.4381596315073448e-06 1.2177838883336379e-05 0.0000000000000000e+00  -3.2409546103858234e-05 -1.5940464079739474e-05 0.0000000000000000e+00  -4.3426195878894546e-05 -3.9083539264176579e-05 0.0000000000000000e+00  -1.8030513736262405e-05 -1.0095891065662517e-04 0.0000000000000000e+00  -1.6904116570941164e-06 -1.7500339009446294e-04 0.0000000000000000e+00  2.0198208272564924e-05 -1.8500413010138835e-04 0.0000000000000000e+00  6.3380884591176682e-05 -1.2141900788054472e-04 0.0000000000000000e+00  4.6017320924224498e-04 -1.1364890441485132e-01 0.0000000000000000e+00  1.0411756572613707e-04 -1.2755476870686680e-01 0.0000000000000000e+00  5.2968536240239391e-04 -1.1392281696018550e-01 0.0000000000000000e+00  0.0000000000000000e+00 0.0000000000000000e+00 0.0000000000000000e+00  0.0000000000000000e+00 0.0000000000000000e+00 0.0000000000000000e+00  3.1838752457870084e-04 -1.1347405397079319e-01 0.0000000000000000e+00  -9.3512302660893643e-05 -1.2720988081161991e-01 0.0000000000000000e+00  2.3710260823244317e-04 -1.1370736365947134e-01 0.0000000000000000e+00  -2.2113459330057715e-04 -2.9178258452500206e-04 0.0000000000000000e+00  -6.2712637528001790e-05 -9.6489333750169229e-05 0.0000000000000000e+00  -1.0866114694680921e-05 -1.1042395305715213e-05 0.0000000000000000e+00  -6.5639858695307716e-05 -9.1704841238668801e-05 0.0000000000000000e+00  -5.4962634352372063e-05 -1.0914307196149489e-04 0.0000000000000000e+00  -2.3952785146380183e-05 -3.3228142611371518e-05 0.0000000000000000e+00  -6.0515900752383139e-06 -1.5919086032551354e-05 0.0000000000000000e+00  -4.0647053816857843e-05 -7.4763880905281963e-05 0.0000000000000000e+00  -2.0445056687265974e-05 -1.7155262512485940e-04 0.0000000000000000e+00  6.2069069815376927e-05 -3.9446850119452970e-04 0.0000000000000000e+00  8.0041541054866601e-05 -5.6925136597686112e-04 0.0000000000000000e+00  6.0059256142980808e-04 -1.1377885377553118e-01 0.0000000000000000e+00  1.9457281802826083e-04 -1.2737354436026269e-01 0.0000000000000000e+00  4.6517788983067762e-04 -1.1370345553709506e-01 0.0000000000000000e+00  0.0000000000000000e+00 0.0000000000000000e+00 0.0000000000000000e+00  0.0000000000000000e+00 0.0000000000000000e+00 0.0000000000000000e+00  1.3414104936485449e-04 -1.1318756842295363e-01 0.0000000000000000e+00  -4.1238947698588236e-04 -1.2708106742938272e-01 0.0000000000000000e+00  -2.2567053448612978e-04 -1.1369949789434391e-01 0.0000000000000000e+00  -8.0503023130001374e-04 -8.3688510287126749e-04 0.0000000000000000e+00  -6.6152518563960389e-04 -3.6325082732815213e-04 0.0000000000000000e+00  -2.6278742969033025e-04 -4.0349282587115286e-04 0.0000000000000000e+00  -2.7751060912449045e-04 -4.5011130233478747e-04 0.0000000000000000e+00  -4.5818298700235255e-05 -2.2374647640490994e-04 0.0000000000000000e+00  8.4576223071651467e-05 -1.8233736565443441e-04 0.0000000000000000e+00  2.5123166419960654e-04 -3.7173170116908507e-04 0.0000000000000000e+00  2.7574213634993925e-04 -1.2333187162956699e-04 0.0000000000000000e+00  8.0433875378993112e-04 -4.1473536803881579e-04 0.0000000000000000e+00  8.4228796291486519e-04 -1.0755170805481166e-03 0.0000000000000000e+00  6.9319212589830125e-04 -1.3304717432239604e-03 0.0000000000000000e+00  9.2058191354068306e-04 -1.1369034514495448e-01 0.0000000000000000e+00  4.6104593327369703e-04 -1.2709165866457836e-01 0.0000000000000000e+00  5.9070719704808184e-04 -1.1336577619855102e-01 0.0000000000000000e+00  0.0000000000000000e+00 0.0000000000000000e+00 0.0000000000000000e+00  0.0000000000000000e+00 0.0000000000000000e+00 0.0000000000000000e+00  -2.6014108233702622e-04 -1.1231419244708668e-01 0.0000000000000000e+00  -1.2162340798147486e-03 -1.2635841617135316e-01 0.0000000000000000e+00  -1.3440480934492015e-03 -1.1357874296398522e-01 0.0000000000000000e+00  -3.0760847797898202e-03 -8.3419247810125356e-04 0.0000000000000000e+00  -2.3151594007726870e-03 -2.1619642158029356e-04 0.0000000000000000e+00  -1.6193535355372329e-03 3.1808220310614130e-04 0.0000000000000000e+00  -4.7242242502946178e-04 -9.8726928095068051e-04 0.0000000000000000e+00  -1.6016062781772702e-04 -5.2089180172384464e-04 0.0000000000000000e+00  1.8547771858841132e-04 -4.3322070204530660e-04 0.0000000000000000e+00  5.1142345278714859e-04 -4.5109063166295406e-04 0.0000000000000000e+00  7.8294033782863180e-04 -5.1146748211257863e-04 0.0000000000000000e+00  2.1020955853377739e-03 -3.6146016836876806e-04 0.0000000000000000e+00  2.4138610500587833e-03 -1.3933177965298150e-03 0.0000000000000000e+00  2.9361099385895048e-03 -2.5465206344957303e-03 0.0000000000000000e+00  1.9834090396523077e-03 -1.1327342740744888e-01 0.0000000000000000e+00  1.1575121112137648e-03 -1.2632231836949684e-01 0.0000000000000000e+00  9.0711123430209633e-04 -1.1258048175260414e-01 0.0000000000000000e+00  0.0000000000000000e+00 0.0000000000000000e+00 0.0000000000000000e+00  0.0000000000000000e+00 0.0000000000000000e+00 0.0000000000000000e+00  -8.8985831294457443e-04 -1.1040142164462639e-01 0.0000000000000000e+00  -2.5472083683218357e-03 -1.2448743074837428e-01 0.0000000000000000e+00  -3.3501278490675767e-03 -1.1233905314020509e-01 0.0000000000000000e+00  -4.7162925866321131e-03 -2.1297931032344271e-03 0.0000000000000000e+00  -5.0114309678088277e-03 -3.4613514358510108e-04 0.0000000000000000e+00  -5.6908221421100849e-03 1.9399076993063525e-03 0.0000000000000000e+00  -3.2541948567883523e-03 -3.2881084235197870e-03 0.0000000000000000e+00  -1.3932240739828576e-03 -3.9597687632560016e-03 0.0000000000000000e+00  3.4491488688303851e-04 -3.9738889260675500e-03 0.0000000000000000e+00  2.0474125095437117e-03 -3.5804099035969751e-03 0.0000000000000000e+00  3.4813465525321626e-03 -2.3985211159766847e-03 0.0000000000000000e+00  4.5156401482314172e-03 3.7196375247078566e-04 0.0000000000000000e+00  4.9741629158157746e-03 -1.2261323049383771e-03 0.0000000000000000e+00  5.5309438790524957e-03 -2.5102089669788645e-03 0.0000000000000000e+00  4.0547549376805060e-03 -1.1199698842618815e-01 0.0000000000000000e+00  2.4284703258690182e-03 -1.2451078689314174e-01 0.0000000000000000e+00  1.4707010901479690e-03 -1.1088758464873165e-01 0.0000000000000000e+00  0.0000000000000000e+00 0.0000000000000000e+00 0.0000000000000000e+00  0.0000000000000000e+00 0.0000000000000000e+00 0.0000000000000000e+00  -1.6737043424684048e-03 -1.0705388476605300e-01 0.0000000000000000e+00  -4.2455904993920811e-03 -1.2092608288003666e-01 0.0000000000000000e+00  -6.0859639182618231e-03 -1.0938371103088489e-01 0.0000000000000000e+00  -7.5896697695628833e-03 -2.9110831118622405e-03 0.0000000000000000e+00  -7.8540029188925702e-03 -1.0686343382909709e-03 0.0000000000000000e+00  -7.9749612109521785e-03 4.3692222160785957e-04 0.0000000000000000e+00  -5.5910053642428863e-03 -7.1418817094800816e-03 0.0000000000000000e+00  -2.6355263289884585e-03 -8.6681055211147735e-03 0.0000000000000000e+00  3.2747450941781600e-04 -8.9176436945715542e-03 0.0000000000000000e+00  3.2559880594264989e-03 -8.4211923216231249e-03 0.0000000000000000e+00  6.0911062019649177e-03 -6.2972357262680500e-03 0.0000000000000000e+00  7.8582008973617310e-03 1.1088437651982210e-03 0.0000000000000000e+00  8.1324286568550327e-03 -7.3400926733758836e-04 0.0000000000000000e+00  8.2577362326196873e-03 -2.6824968205329770e-03 0.0000000000000000e+00  6.7830666660741706e-03 -1.0882373997229124e-01 0.0000000000000000e+00  4.1264548869285175e-03 -1.2107410082009767e-01 0.0000000000000000e+00  2.2174565319217601e-03 -1.0783691470121289e-01 0.0000000000000000e+00  0.0000000000000000e+00 0.0000000000000000e+00 0.0000000000000000e+00  0.0000000000000000e+00 0.0000000000000000e+00 0.0000000000000000e+00  -2.4244179633921693e-03 -1.0216854154958484e-01 0.0000000000000000e+00  -5.8778629827822056e-03 -1.1550654739562545e-01 0.0000000000000000e+00  -8.7232602331763689e-03 -1.0449580155578449e-01 0.0000000000000000e+00  -1.0900273769680445e-02 -3.0164703440824720e-03 0.0000000000000000e+00  -1.1170711610639280e-02 -1.4581217554561943e-03 0.0000000000000000e+00  -1.1201714098992179e-02 1.1719342616467262e-04 0.0000000000000000e+00  -7.9590122235107478e-03 -1.3719672022116535e-02 0.0000000000000000e+00  -3.8608561403038976e-03 -1.5621167080103301e-02 0.0000000000000000e+00  2.7131663692257665e-04 -1.5982188997658610e-02 0.0000000000000000e+00  4.4001720349062610e-03 -1.5491348501339167e-02 0.0000000000000000e+00  8.5380413550480740e-03 -1.2575170285798238e-02 0.0000000000000000e+00  1.1102176926373587e-02 1.0635475432546446e-03 0.0000000000000000e+00  1.1362966527413162e-02 -5.0959929323415463e-04 0.0000000000000000e+00  1.1389579912801857e-02 -1.9945602573288547e-03 0.0000000000000000e+00  9.3640059225656436e-03 -1.0373327281741523e-01 0.0000000000000000e+00  5.7964693048034588e-03 -1.1573513520208080e-01 0.0000000000000000e+00  2.9640427097223469e-03 -1.0322404852902897e-01 0.0000000000000000e+00  0.0000000000000000e+00 0.0000000000000000e+00 0.0000000000000000e+00  0.0000000000000000e+00 0.0000000000000000e+00 0.0000000000000000e+00  -2.9679286019023924e-03 -9.6004714818312922e-02 0.0000000000000000e+00  -7.0587365310506222e-03 -1.0852197822894367e-01 0.0000000000000000e+00  -1.0647806416364095e-02 -9.7986902034413917e-02 0.0000000000000000e+00  -1.3472384187575178e-02 -2.5656990545145060e-03 0.0000000000000000e+00  -1.3698739246353463e-02 -1.5965195538760564e-03 0.0000000000000000e+00  -1.3555813449915318e-02 -6.6469723054158345e-04 0.0000000000000000e+00  -9.7833804000222319e-03 -2.2137701114583033e-02 0.0000000000000000e+00  -4.8273300280081768e-03 -2.4687852321502220e-02 0.0000000000000000e+00  1.7689878088065369e-04 -2.5035332518323652e-02 0.0000000000000000e+00  5.1846481302765491e-03 -2.4570732331286444e-02 0.0000000000000000e+00  1.0262980970436385e-02 -2.0846771064614491e-02 0.0000000000000000e+00  1.3629632249935967e-02 5.4299978812849851e-04 0.0000000000000000e+00  1.3866134684635920e-02 -3.8575133337441503e-04 0.0000000000000000e+00  1.3733589331219489e-02 -1.2845493542476090e-03 0.0000000000000000e+00  1.1282927694608138e-02 -9.7014184772452189e-02 0.0000000000000000e+00  7.0445212889875238e-03 -1.0877160563196199e-01 0.0000000000000000e+00  3.5278939856725170e-03 -9.7239391356888735e-02 0.0000000000000000e+00  0.0000000000000000e+00 0.0000000000000000e+00 0.0000000000000000e+00  0.0000000000000000e+00 0.0000000000000000e+00 0.0000000000000000e+00  -3.1924276130615523e-03 -8.9104033962786058e-02 0.0000000000000000e+00  -7.5452299661589901e-03 -1.0060241236072386e-01 0.0000000000000000e+00  -1.1477852216095128e-02 -9.0493309345362288e-02 0.0000000000000000e+00  -1.4712284664826407e-02 -1.8085745364799274e-03 0.0000000000000000e+00  -1.4892913974751006e-02 -1.6342427642115065e-03 0.0000000000000000e+00  -1.4679917436582677e-02 -1.4830789304226956e-03 0.0000000000000000e+00  -1.0602000906377711e-02 -3.1715940814287892e-02 0.0000000000000000e+00  -5.3125502428456829e-03 -3.4999367343651187e-02 0.0000000000000000e+00  6.4931685424863167e-05 -3.5313172472997256e-02 0.0000000000000000e+00  5.4498125740222282e-03 -3.4881169640168817e-02 0.0000000000000000e+00  1.0958073482740322e-02 -3.0333150622293786e-02 0.0000000000000000e+00  1.4809994284305121e-02 -2.6258896739768595e-04 0.0000000000000000e+00  1.4993170498240083e-02 -4.0012836868201528e-04 0.0000000000000000e+00  1.4778289475780589e-02 -5.1702506333893832e-04 0.0000000000000000e+00  1.2100097101759570e-02 -8.9402889017137152e-02 0.0000000000000000e+00  7.6025785753440099e-03 -1.0082305692775559e-01 0.0000000000000000e+00  3.7834840732179948e-03 -9.0389917569249981e-02 0.0000000000000000e+00  6.3825641519582269e-11 6.3234463932695943e-10 0.0000000000000000e+00  0.0000000000000000e+00 0.0000000000000000e+00 0.0000000000000000e+00  -3.0528475077593155e-03 -8.2160416974650374e-02 0.0000000000000000e+00  -7.2411199061911610e-03 -9.2556430115771790e-02 0.0000000000000000e+00  -1.1064772648045819e-02 -8.2810701482629229e-02 0.0000000000000000e+00  -1.4369874006666892e-02 -9.3770496233526186e-04 0.0000000000000000e+00  -1.4502407620217478e-02 -1.5863085192932163e-03 0.0000000000000000e+00  -1.4259146510633376e-02 -2.2478396578744773e-03 0.0000000000000000e+00  -1.0293784961029716e-02 -4.1384474854248954e-02 0.0000000000000000e+00  -5.2329254794440290e-03 -4.5494558533319608e-02 0.0000000000000000e+00  -4.9423423913941972e-05 -4.5772291694713391e-02 0.0000000000000000e+00  5.1466756756672078e-03 -4.5375185415503720e-02 0.0000000000000000e+00  1.0507570246011313e-02 -4.0047699217975970e-02 0.0000000000000000e+00  1.4398729943627462e-02 -1.1707859559161825e-03 0.0000000000000000e+00  1.4528442013029472e-02 -4.8482386158017922e-04 0.0000000000000000e+00  1.4284313137372042e-02 2.1519041918302524e-04 0.0000000000000000e+00  1.1676024671538311e-02 -8.1721519935990292e-02 0.0000000000000000e+00  7.3653359048533778e-03 -9.2727559060607645e-02 0.0000000000000000e+00  3.6764198074035167e-03 -8.3368745463586622e-02 0.0000000000000000e+00  0.0000000000000000e+00 0.0000000000000000e+00 0.0000000000000000e+00  0.0000000000000000e+00 0.0000000000000000e+00 0.0000000000000000e+00  -2.5604424676468583e-03 -7.5896294838889156e-02 0.0000000000000000e+00  -6.1723811640965517e-03 -8.5227700585171123e-02 0.0000000000000000e+00  -9.4498403621586739e-03 -7.5755562172516999e-02 0.0000000000000000e+00  -1.2457711572655130e-02 -9.2080409318464837e-05 0.0000000000000000e+00  -1.2538013032728636e-02 -1.4871144218945359e-03 0.0000000000000000e+00  -1.2303280613003620e-02 -2.8893514898954333e-03 0.0000000000000000e+00  -8.8817867937609537e-03 -5.0115897024679827e-02 0.0000000000000000e+00  -4.5948595676811492e-03 -5.5059937692724353e-02 0.0000000000000000e+00  -1.5204628366970895e-04 -5.5313529951711675e-02 0.0000000000000000e+00  4.3077670198441460e-03 -5.4951516716549562e-02 0.0000000000000000e+00  8.9624670841531584e-03 -4.8964728213024361e-02 0.0000000000000000e+00  1.2421703472219842e-02 -2.0390461551330671e-03 0.0000000000000000e+00  1.2494664540910501e-02 -6.1129578910686230e-04 0.0000000000000000e+00  1.2255800491050029e-02 8.2374473070656032e-04 0.0000000000000000e+00  1.0053369991963804e-02 -7.4796223855805047e-02 0.0000000000000000e+00  6.3547417471376032e-03 -8.5345422973570076e-02 0.0000000000000000e+00  3.2137393685645272e-03 -7.6911790968263657e-02 0.0000000000000000e+00  0.0000000000000000e+00 0.0000000000000000e+00 0.0000000000000000e+00  0.0000000000000000e+00 0.0000000000000000e+00 0.0000000000000000e+00  -1.7695738601924518e-03 -7.0963361475456371e-02 0.0000000000000000e+00  -4.4577819371573050e-03 -7.9381705887365275e-02 0.0000000000000000e+00  -6.8171918379248131e-03 -7.0063571057710994e-02 0.0000000000000000e+00  -9.1935212480808940e-03 6.2520719015641245e-04 0.0000000000000000e+00  -9.2189283096920874e-03 -1.3594330660692674e-03 0.0000000000000000e+00  -9.0183031087364939e-03 -3.3473981064567099e-03 0.0000000000000000e+00  -6.5275148814631584e-03 -5.6999271724195666e-02 0.0000000000000000e+00  -3.4721996347421534e-03 -6.2691283950179907e-02 0.0000000000000000e+00  -2.3259377266388493e-04 -6.2936696703253373e-02 0.0000000000000000e+00  3.0273454676328668e-03 -6.2608646922294717e-02 0.0000000000000000e+00  6.5008042270854041e-03 -5.6155792578804015e-02 0.0000000000000000e+00  9.1056632288095320e-03 -2.7663997679935760e-03 0.0000000000000000e+00  9.1191096213960269e-03 -7.5779759808395188e-04 0.0000000000000000e+00  8.9112128922485684e-03 1.2543712865170809e-03 0.0000000000000000e+00  7.4151292001011808e-03 -6.9349650993812795e-02 0.0000000000000000e+00  4.6848442972092950e-03 -7.9451424821536776e-02 0.0000000000000000e+00  2.4463352841783579e-03 -7.1693089597298393e-02 0.0000000000000000e+00  0.0000000000000000e+00 0.0000000000000000e+00 0.0000000000000000e+00  0.0000000000000000e+00 0.0000000000000000e+00 0.0000000000000000e+00  -7.6525901396031057e-04 -6.7870466833696103e-02 0.0000000000000000e+00  -2.2812557353041650e-03 -7.5622358725655134e-02 0.0000000000000000e+00  -3.4519862653251136e-03 -6.6316445210516578e-02 0.0000000000000000e+00  -4.9434423876739790e-03 1.1460212297514944e-03 0.0000000000000000e+00  -4.9118569853290458e-03 -1.2165760812319296e-03 0.0000000000000000e+00  -4.7611658226967219e-03 -3.5803273260384383e-03 0.0000000000000000e+00  -3.4859240485350163e-03 -6.1332149839491472e-02 0.0000000000000000e+00  -1.9878701235429585e-03 -6.7600034415456506e-02 0.0000000000000000e+00  -2.8390990087839320e-04 -6.7852293426750018e-02 0.0000000000000000e+00  1.4424675588899814e-03 -6.7555683291135898e-02 0.0000000000000000e+00  3.3897269486724783e-03 -6.0886002580614697e-02 0.0000000000000000e+00  4.8231066068713151e-03 -3.2859957383077816e-03 0.0000000000000000e+00  4.7752193757810988