<?xml version="1.0"?>
<VTKFile type="UnstructuredGrid"  version="0.1"  >
<UnstructuredGrid>
<Piece  NumberOfPoints="589" NumberOfCells="1080">
<Points>
<DataArray  type="Float64"  NumberOfComponents="3"  format="ascii">-9 0 0  -8 0 0  -7 0 0  -6 0 0  -5 0 0  -4 0 0  -3 0 0  -2 0 0  -1 0 0  0 0 0  1 0 0  2 0 0  3 0 0  4 0 0  5 0 0  6 0 0  7 0 0  8 0 0  9 0 0  -9 2 0  -8.000003312881297 1.999995329196762 0  -7.000006959147119 1.99999119932545 0  -6.00001168174919 1.999988045609034 0  -5.000019145244832 1.999986046029167 0  -4.000011747888877 1.999989677059054 0  -3.000004069187355 1.999992933121838 0  -2.000000200593417 1.999995908337824 0  -0.9999992971017401 1.999998256350921 0  -2.467763048165179e-07 1.999999293916709 0  0.999998655124307 1.999998614587435 0  1.999999056576812 1.999996391092732 0  3.000002067603437 1.999993653766566 0  4.000008032886121 1.999990717966314 0  5.000016578184694 1.999989525621451 0  6.000009978173369 1.999990026335458 0  7.00000590725384 1.999992332946875 0  8.000002809522373 1.99999585693903 0  9 2 0  -9 4 0  -8.000005292191743 3.999988494785773 0  -7.000009612948425 3.999978494122109 0  -6.000012399902004 3.99997147472071 0  -5.000013779883383 3.999968851319877 0  -4.000003232037136 3.999970493008543 0  -2.999996028468162 3.999979384125272 0  -1.999993859272547 3.999990936413421 0  -0.9999960599233361 4.000000212301805 0  -6.549614121908674e-07 4.00000398126729 0  0.9999946323752035 4.000001158453845 0  1.999992034129866 3.999993420024101 0  2.999993773242482 3.999982934022603 0  4.000000505096992 3.99997243326554 0  5.000010560643647 3.999969029072116 0  6.000009839940055 3.999972829154398 0  7.000007921720487 3.999979796492636 0  8.000004466158533 3.999989237729623 0  9 4 0  -9 6 0  -8.000011157097953 5.999975642733964 0  -7.000018401956842 5.999953864383897 0  -6.000018745965152 5.999937320314064 0  -5.000011327949442 5.9999285627304 0  -3.999991121075053 5.999941648309886 0  -2.999981756336512 5.999968919740732 0  -1.999984988425903 5.999997490076286 0  -0.9999935481795635 6.000013389030914 0  -2.204076690244442e-06 6.000016642456646 0  0.9999900768316522 6.00001157012153 0  1.999984303891474 5.999997503966516 0  2.999982344207489 5.99997377783624 0  3.999987306077384 5.999949229375354 0  5.000004417955862 5.999937222498575 0  6.000014491775978 5.999942963409518 0  7.000016085419504 5.999957364976234 0  8.000010164970483 5.999977334896977 0  9 6 0  -9 8 0  -8.000032669201898 7.999952477555756 0  -7.000054793436862 7.999908300241947 0  -6.00005613963909 7.999872022623955 0  -5.000027912135818 7.999851168451227 0  -3.999989219666328 7.999911271318408 0  -2.999996022204819 7.999981900546871 0  -2.000010206529448 8.000016370397267 0  -1.000011195997405 8.00002037431419 0  -2.376336089973481e-06 8.000021532852513 0  1.00000434294943 8.000024889030334 0  2.000002039421104 8.00001066828521 0  2.999985851418578 7.999986361694754 0  3.999980758383143 7.999926478213958 0  5.000018580272405 7.99985902075222 0  6.000053062450739 7.999878458697522 0  7.00005430334396 7.999912662843399 0  8.000032840019895 7.999954653461424 0  9 8 0  -9 10 0  -8.000096348560335 9.999915942054319 0  -7.000174283732058 9.999831152793961 0  -6.000211815320765 9.999745057101782 0  -5.000178302857658 9.999657440998382 0  -4.000117171711036 9.99985090158135 0  -3.000126601334775 10.00001740278646 0  -2.000101403578377 9.999989077217492 0  -1.000047553118518 9.999979993902466 0  -7.829896447300075e-06 9.999977790172025 0  1.000031514044655 9.999977938861829 0  2.000083596011267 9.999976850298301 0  3.00012988226558 10.00003552246172 0  4.000124981801791 9.999879458538606 0  5.000193583915657 9.999673908799942 0  6.000224571859011 9.9997549095729 0  7.000183321506165 9.999836826243294 0  8.000101010945627 9.999918555610972 0  9 10 0  -9 12 0  -8.000233623343249 11.99988235343341 0  -7.000455293645597 11.99975926746865 0  -6.000651485093548 11.99962423645581 0  -5.000805455189883 11.99946818334608 0  -4.00077422567674 11.99982012123872 0  -3.000801913229542 12.00016862455292 0  -2.000552614297435 12.00012623032168 0  -1.000275519757821 12.00010306213733 0  1.218200945258361e-05 12.00009811857769 0  1.000302961208124 12.00011208740155 0  2.000590558809824 12.00014915769992 0  3.000862459462858 12.00021985866628 0  4.000833772557309 11.99984726177289 0  5.000853398598411 11.99947170682087 0  6.000684905619615 11.99962774343848 0  7.000476515927441 11.99976176754827 0  8.000243943775473 11.99988361549111 0  9 12 0  -9 14 0  -8.00041859066444 13.99987054672492 0  -7.00083802779941 13.99973520437239 0  -6.001259713668813 13.99958756549372 0  -5.001686543064931 13.99942020960392 0  -4.001690726958201 13.99983079177955 0  -3.001692723474359 14.00024662133024 0  -2.001115232240828 14.00018652427707 0  -1.000546015368257 14.0001532714199 0  1.990914518137455e-05 14.00014283353802 0  1.0005873048224 14.00015387410503 0  2.001160634870435 14.00018700597336 0  3.001743505572244 14.00024405123543 0  4.001749035865261 13.99983259056139 0  5.001751504199098 13.99942375749756 0  6.001304543253449 13.99958871989733 0  7.000866274518677 13.99973546877628 0  8.000432259777275 13.99987055933011 0  9 14 0  -9 16 0  -8.000600009256665 15.99988231237459 0  -7.00121149918707 15.9997603613228 0  -6.001846937454223 15.99962981350804 0  -5.00252084921078 15.99948627392133 0  -4.002544494028752 15.99983610806198 0  -3.002521599982917 16.00018405058251 0  -2.001645171427141 16.00013957123213 0  -1.000803526630494 16.00011232508335 0  2.175559358768133e-05 16.00010172861137 0  1.000848101196274 16.00010738770053 0  2.001692952854268 16.00012929256647 0  3.002574874075576 16.00016772962081 0  4.002600787672529 15.99982180094413 0  5.002578802068989 15.99947558331904 0  6.001888936161548 15.99962261207061 0  7.001238729005321 15.99975584657929 0  8.000613384074489 15.99988012544904 0  9 16 0  -9 18 0  -8.000735331755715 17.9999111357302 0  -7.001488872346732 17.99981992151979 0  -6.002279775363647 17.99972405506989 0  -5.003129093964063 17.99962134708705 0  -4.003164858882976 17.99983710507224 0  -3.003130069114029 18.00005256717654 0  -2.002036508188239 18.0000237895776 0  -1.000995838461868 18.00000488916627 0  1.933627343157465e-05 17.99999570922938 0  1.001035095753097 17.99999602340604 0  2.00207748452625 18.00000555089779 0  3.003173775343648 18.00002390417184 0  4.003210675477203 17.99981354014434 0  5.003175994945464 17.99960379652162 0  6.002314154002789 17.99971171986399 0  7.001511395761021 17.99981207069271 0  8.000746471609917 17.99990731731201 0  9 18 0  -9 20 0  -8.00079766074588 19.99994935586038 0  -7.001616483542744 19.99989809416067 0  -6.00247843753909 19.9998456710444 0  -5.003407109310181 19.99979169174652 0  -4.003447867709014 19.99983671131607 0  -3.003407452108165 19.99988144239948 0  -2.002216877754044 19.99986857557483 0  -1.001086454911488 19.99985865152604 0  1.456420028698707e-05 19.99985179207878 0  1.001115827232039 19.99984788173812 0  2.002246964275283 19.99984657594853 0  3.003438674212842 19.99984728147079 0  4.003479811268837 19.99980912258004 0  5.003439526940646 19.9997714108351 0  6.002502488959408 19.99983112765799 0  7.001632386896454 19.99988871624236 0  8.000805571740086 19.99994476191664 0  8.999999999994733 20.00000000000132 0  -9 22 0  -8.00077519625105 21.99999004277862 0  -7.001571261119988 21.99998091107513 0  -6.002409712259936 21.9999735112815 0  -5.003313364332359 21.99996891296094 0  -4.003353158820412 21.99983466724641 0  -3.00331350096535 21.99970014157244 0  -2.002157243381975 21.99970161475994 0  -1.001059741055426 21.99970018223717 0  8.814426918681946e-06 21.9996961052066 0  1.001077342562408 21.99968934624036 0  2.002174748113233 21.99967957505471 0  3.003330795782989 21.99966616321565 0  4.003370137269833 21.99980737552439 0  5.003330203341875 21.99994888617895 0  6.002422552149073 21.99995904580578 0  7.001579913097984 21.99997152985867 0  8.000779547870767 21.99998543070592 0  9 22 0  -9 24 0  -8.00066910936536 24.00002742724816 0  -7.001356180064946 24.00005679952719 0  -6.002079661792814 24.00009014350247 0  -5.002858976658586 24.00012965075058 0  -4.002893152055757 23.9998313058404 0  -3.002859191440761 23.99953274385845 0  -2.001863169972438 23.99954625223868 0  -1.000917508760297 23.99955226776646 0  3.187356661257739e-06 23.99955112255498 0  1.000923645080727 23.99954283424553 0  2.001868577383461 23.99952710768277 0  3.002863338721109 23.99950333289798 0  4.002896156286382 23.99980778953886 0  5.00286141154754 24.00011246583736 0  6.002082060376855 24.00007766253329 0  7.001358043208011 24.00004867337983 0  8.000670118316645 24.00002342258854 0  9 24 0  -9 26 0  -8.000491012780804 26.00005703420359 0  -7.000995119773627 26.00011680290017 0  -6.001525749121569 26.00018212166355 0  -5.002096971308905 26.00025597030001 0  -4.002122039738199 25.99982699136 0  -3.002097491242344 25.99939786604201 0  -2.001368213897285 25.99942080736625 0  -1.000675669647543 25.9994329429456 0  -1.46246517085553e-06 25.99943465819338 0  1.000672352416096 25.99942601951231 0  2.001363705908205 25.99940677467423 0  3.002090951986153 25.99937635183729 0  4.002113767665519 25.99980984524651 0  5.00208782274934 26.00024348172584 0  6.001519729779096 26.00017302291705 0  7.000991499573846 26.00011086478824 0  8.000489318124826 26.00005410347655 0  9 26 0  -9 28 0  -8.000260346464813 28.00007570637156 0  -7.000527616772441 28.00015460766272 0  -6.000808911820239 28.00023997963853 0  -5.00111165088489 28.0003352606772 0  -4.001125287872798 27.99982214927937 0  -3.001112625918525 27.99930897921608 0  -2.000726872476609 27.99933853012671 0  -1.000360730097635 27.99935524320912 0  -4.519169857931758e-06 27.99935955239649 0  1.000351203983874 27.99935157101189 0  2.000715868204094 27.99933109193541 0  3.001099108880458 27.99929758740692 0  4.001109684725606 27.9998130969297 0  5.00109499203219 28.00032869267265 0  6.000797429169587 28.00023518496887 0  7.000520435053927 28.00015147380154 0  8.000256895512745
[...]
<PointData  Vectors="f_44-0"> 
<DataArray  type="Float64"  Name="f_44-0"  NumberOfComponents="3" format="ascii">0.0000000000000000e+00 0.0000000000000000e+00 0.0000000000000000e+00  -4.2971927668547990e-09 -1.0964903876623142e+00 0.0000000000000000e+00  5.9049953225842328e-08 -1.0802158788832374e+00 0.0000000000000000e+00  1.0386061645445905e-07 -9.2231719499593445e-01 0.0000000000000000e+00  0.0000000000000000e+00 0.0000000000000000e+00 0.0000000000000000e+00  0.0000000000000000e+00 0.0000000000000000e+00 0.0000000000000000e+00  0.0000000000000000e+00 0.0000000000000000e+00 0.0000000000000000e+00  0.0000000000000000e+00 0.0000000000000000e+00 0.0000000000000000e+00  0.0000000000000000e+00 0.0000000000000000e+00 0.0000000000000000e+00  0.0000000000000000e+00 0.0000000000000000e+00 0.0000000000000000e+00  0.0000000000000000e+00 0.0000000000000000e+00 0.0000000000000000e+00  0.0000000000000000e+00 0.0000000000000000e+00 0.0000000000000000e+00  0.0000000000000000e+00 0.0000000000000000e+00 0.0000000000000000e+00  0.0000000000000000e+00 0.0000000000000000e+00 0.0000000000000000e+00  0.0000000000000000e+00 0.0000000000000000e+00 0.0000000000000000e+00  -3.8964339504759266e-09 -1.1001884637272707e+00 0.0000000000000000e+00  5.9619114789552632e-08 -1.0835375625586983e+00 0.0000000000000000e+00  1.0279656488512924e-07 -9.2436548112141514e-01 0.0000000000000000e+00  0.0000000000000000e+00 0.0000000000000000e+00 0.0000000000000000e+00  0.0000000000000000e+00 0.0000000000000000e+00 0.0000000000000000e+00  3.9148306146024583e-04 -9.8928071948714025e-01 0.0000000000000000e+00  2.3661660073545560e-03 -1.0774617828640858e+00 0.0000000000000000e+00  8.2697787972893788e-03 -9.9273212225341256e-01 0.0000000000000000e+00  5.6273971719232509e-04 -3.3325392687799654e-04 0.0000000000000000e+00  6.9640691024976012e-04 -5.5012810925810938e-04 0.0000000000000000e+00  4.2174011706498014e-04 -3.4006729110260545e-04 0.0000000000000000e+00  3.4831165389644737e-04 -5.2732465130516066e-06 0.0000000000000000e+00  2.0772778850996733e-04 1.8404227649064305e-04 0.0000000000000000e+00  6.6942697211085100e-05 1.5976626347117396e-04 0.0000000000000000e+00  -7.8371869515735549e-05 -1.7410384365013827e-05 0.0000000000000000e+00  -1.7909987750336370e-04 -2.6470763005638026e-04 0.0000000000000000e+00  -2.8567557552038324e-04 -6.3044723619316108e-04 0.0000000000000000e+00  -4.1177294830470107e-04 -7.3787597528070605e-04 0.0000000000000000e+00  -6.4177537179912656e-04 -1.2139530901655988e-03 0.0000000000000000e+00  5.2221807705620058e-04 -9.9223683223652781e-01 0.0000000000000000e+00  2.5814010407141526e-03 -1.0807136855672042e+00 0.0000000000000000e+00  8.4869710321112610e-03 -9.9568774302548269e-01 0.0000000000000000e+00  0.0000000000000000e+00 0.0000000000000000e+00 0.0000000000000000e+00  0.0000000000000000e+00 0.0000000000000000e+00 0.0000000000000000e+00  3.7183633089635381e-03 -9.9321849190044653e-01 0.0000000000000000e+00  -6.4068106709207879e-04 -1.0721252491539437e+00 0.0000000000000000e+00  3.8740114270307993e-03 -9.9455208916006987e-01 0.0000000000000000e+00  -6.9153676018567892e-04 -1.1958325701038630e-03 0.0000000000000000e+00  -1.5944920741456899e-05 -2.7568422723612217e-04 0.0000000000000000e+00  1.8349681102470394e-04 5.5526015389772553e-04 0.0000000000000000e+00  1.5342244847119164e-04 7.2917678252727822e-04 0.0000000000000000e+00  -8.7721261052717552e-05 4.0913135980257562e-04 0.0000000000000000e+00  -2.3546179035726880e-04 5.8929340210823480e-05 0.0000000000000000e+00  -2.5842648158698543e-04 -3.9551869575931648e-05 0.0000000000000000e+00  -3.4809936779517281e-07 -3.8747424862937377e-04 0.0000000000000000e+00  5.6980764436024802e-05 -7.9358089157994345e-04 0.0000000000000000e+00  -1.4494387355535153e-05 -6.0530520506234915e-04 0.0000000000000000e+00  -7.9241420853019815e-05 -2.4523096706993610e-04 0.0000000000000000e+00  3.9926145889319234e-03 -9.9608952471016110e-01 0.0000000000000000e+00  -4.2431234442145857e-04 -1.0750359236006071e+00 0.0000000000000000e+00  3.9603235249734380e-03 -9.9733126144795137e-01 0.0000000000000000e+00  0.0000000000000000e+00 0.0000000000000000e+00 0.0000000000000000e+00  0.0000000000000000e+00 0.0000000000000000e+00 0.0000000000000000e+00  3.4422715295924717e-03 -9.9396786923347380e-01 0.0000000000000000e+00  -8.7364906023672468e-04 -1.0724884168917872e+00 0.0000000000000000e+00  3.3747589076577292e-03 -9.9452628339999716e-01 0.0000000000000000e+00  -1.3974503909943013e-03 3.5672721521503988e-05 0.0000000000000000e+00  -5.0587585725633941e-04 1.3888911874244190e-03 0.0000000000000000e+00  -3.6175171252197604e-04 1.3745211465098466e-03 0.0000000000000000e+00  -8.4494191251165672e-04 -2.5156643167681170e-04 0.0000000000000000e+00  -5.6932457227259591e-04 -9.4541748661753494e-04 0.0000000000000000e+00  -1.1997171624629008e-04 -3.1051695326437390e-04 0.0000000000000000e+00  2.0866941943775160e-04 -3.3495971434721825e-05 0.0000000000000000e+00  2.6359039191879799e-05 -1.2122605969699220e-04 0.0000000000000000e+00  2.1986283900901374e-04 -2.3977409867719548e-04 0.0000000000000000e+00  6.0197137675644405e-04 -1.5612996261058412e-03 0.0000000000000000e+00  1.6136708106259014e-04 -2.7845918696925449e-03 0.0000000000000000e+00  4.6628842034068824e-03 -9.9662867291203927e-01 0.0000000000000000e+00  6.5080996041424246e-05 -1.0747138868599686e+00 0.0000000000000000e+00  3.8363008374111807e-03 -9.9613858597919624e-01 0.0000000000000000e+00  0.0000000000000000e+00 0.0000000000000000e+00 0.0000000000000000e+00  0.0000000000000000e+00 0.0000000000000000e+00 0.0000000000000000e+00  2.7247671646076026e-03 -9.9309590973411188e-01 0.0000000000000000e+00  -2.1183302254849400e-03 -1.0724404688085856e+00 0.0000000000000000e+00  1.0119898402293312e-03 -9.9480369247390155e-01 0.0000000000000000e+00  -5.4412704982917835e-03 -2.7574329671151087e-03 0.0000000000000000e+00  -5.7686672883097770e-03 1.7604014383086096e-04 0.0000000000000000e+00  -1.9451389369229612e-03 -2.2689602937669643e-03 0.0000000000000000e+00  -2.0123126782729990e-03 -3.9526374125852942e-03 0.0000000000000000e+00  8.2756604483028660e-05 -1.9152656780679434e-03 0.0000000000000000e+00  8.4397760596571130e-04 -1.5615220227891990e-03 0.0000000000000000e+00  2.1269682662617274e-03 -3.5104707910941705e-03 0.0000000000000000e+00  1.9839611294322811e-03 -4.1648188032638369e-04 0.0000000000000000e+00  7.1868919802405120e-03 -2.5607514342998556e-03 0.0000000000000000e+00  7.6723361787062218e-03 -7.1768445984591736e-03 0.0000000000000000e+00  5.1441255624753617e-03 -7.5541443353758266e-03 0.0000000000000000e+00  5.9175746092951518e-03 -9.9598271553178230e-01 0.0000000000000000e+00  1.2196928325765625e-03 -1.0733689839167049e+00 0.0000000000000000e+00  4.3917589966083401e-03 -9.9451954126937325e-01 0.0000000000000000e+00  0.0000000000000000e+00 0.0000000000000000e+00 0.0000000000000000e+00  0.0000000000000000e+00 0.0000000000000000e+00 0.0000000000000000e+00  1.2342629102780282e-03 -9.8943634752859411e-01 0.0000000000000000e+00  -5.6294607703679840e-03 -1.0690920194734155e+00 0.0000000000000000e+00  -4.9738721068143749e-03 -9.9306309170584905e-01 0.0000000000000000e+00  -2.4891974883948349e-02 3.9683208928015523e-03 0.0000000000000000e+00  -1.8958467408528700e-02 3.9240306733785736e-03 0.0000000000000000e+00  -1.1100295147285038e-02 3.9360858080937635e-03 0.0000000000000000e+00  -6.6708436508931335e-04 -7.8356546604350114e-03 0.0000000000000000e+00  1.3370127731021975e-04 -3.1953535798140810e-03 0.0000000000000000e+00  1.9273795742085042e-03 -2.3435037388688036e-03 0.0000000000000000e+00  3.5661786717299656e-03 -2.4867430721118807e-03 0.0000000000000000e+00  3.9929001072734043e-03 -2.7728386575554039e-03 0.0000000000000000e+00  1.6588957133123080e-02 -3.5756353881318801e-03 0.0000000000000000e+00  1.9817679273630210e-02 -9.3035010158517301e-03 0.0000000000000000e+00  2.1580062432273710e-02 -1.3652428801560573e-02 0.0000000000000000e+00  1.0400399391529310e-02 -9.9400353755599558e-01 0.0000000000000000e+00  3.8004448923000768e-03 -1.0699965636697686e+00 0.0000000000000000e+00  5.5306398790387528e-03 -9.9099106008644422e-01 0.0000000000000000e+00  0.0000000000000000e+00 0.0000000000000000e+00 0.0000000000000000e+00  0.0000000000000000e+00 0.0000000000000000e+00 0.0000000000000000e+00  -6.1756051018696642e-04 -9.8172452058362702e-01 0.0000000000000000e+00  -9.6892220188008384e-03 -1.0615769634771535e+00 0.0000000000000000e+00  -9.5465396765846023e-03 -9.8775781542879271e-01 0.0000000000000000e+00  -2.2741714015846824e-02 -1.9583626215364885e-03 0.0000000000000000e+00  -2.6288381518403549e-02 4.3873697413166898e-03 0.0000000000000000e+00  -3.2438161598861127e-02 1.5693969670404945e-02 0.0000000000000000e+00  -1.4750545162951453e-02 -1.5825727978271642e-02 0.0000000000000000e+00  -5.9051357503747291e-03 -1.8064035420562893e-02 0.0000000000000000e+00  1.4731816653283949e-03 -1.7582208427611781e-02 0.0000000000000000e+00  7.9575990644745812e-03 -1.6530281001707916e-02 0.0000000000000000e+00  1.2061107055144826e-02 -1.3356986650864580e-02 0.0000000000000000e+00  1.9668946541663755e-02 -2.8780868091890697e-03 0.0000000000000000e+00  2.4650633919718081e-02 -6.9437767720503104e-03 0.0000000000000000e+00  2.9405873825824276e-02 -8.1835931866141524e-03 0.0000000000000000e+00  1.7642527808053744e-02 -9.8902417018370148e-01 0.0000000000000000e+00  7.6805191706557745e-03 -1.0629355679923527e+00 0.0000000000000000e+00  7.2428471384382749e-03 -9.8402229288169751e-01 0.0000000000000000e+00  0.0000000000000000e+00 0.0000000000000000e+00 0.0000000000000000e+00  0.0000000000000000e+00 0.0000000000000000e+00 0.0000000000000000e+00  -2.9485622689024312e-03 -9.6875815379295005e-01 0.0000000000000000e+00  -1.4992316783068562e-02 -1.0483594626159338e+00 0.0000000000000000e+00  -1.8158614608151612e-02 -9.7611061733246907e-01 0.0000000000000000e+00  -2.3119491016393861e-02 -8.0720198403022494e-03 0.0000000000000000e+00  -2.5668029616081535e-02 -2.6126554890965317e-03 0.0000000000000000e+00  -2.7082785125463204e-02 -2.9942425844072847e-04 0.0000000000000000e+00  -1.9613305481730139e-02 -3.0446856517017742e-02 0.0000000000000000e+00  -9.0629801893379446e-03 -3.5280122110733551e-02 0.0000000000000000e+00  1.2211291983536623e-03 -3.5831106318741798e-02 0.0000000000000000e+00  1.1319666546039045e-02 -3.4619103758468932e-02 0.0000000000000000e+00  2.0601971060114264e-02 -2.8412781383467828e-02 0.0000000000000000e+00  2.4271504539669475e-02 3.9617124716044205e-03 0.0000000000000000e+00  2.6734430878879178e-02 -1.4877765971719038e-03 0.0000000000000000e+00  2.8096202736729234e-02 -8.1007990853753722e-03 0.0000000000000000e+00  2.5699630938905874e-02 -9.7681817723448938e-01 0.0000000000000000e+00  1.3117605207258364e-02 -1.0507211186368497e+00 0.0000000000000000e+00  9.5001163862130280e-03 -9.7217185974593590e-01 0.0000000000000000e+00  0.0000000000000000e+00 0.0000000000000000e+00 0.0000000000000000e+00  0.0000000000000000e+00 0.0000000000000000e+00 0.0000000000000000e+00  -5.3354989893618053e-03 -9.5003548672836846e-01 0.0000000000000000e+00  -2.0356080562659258e-02 -1.0287249033625463e+00 0.0000000000000000e+00  -2.6705746150460317e-02 -9.5736974191720314e-01 0.0000000000000000e+00  -2.8939180541277164e-02 -1.1838243457807270e-02 0.0000000000000000e+00  -3.1210696720513843e-02 -6.9957900807987730e-03 0.0000000000000000e+00  -3.2763344992727345e-02 -1.9274440012562487e-03 0.0000000000000000e+00  -2.7238434260808769e-02 -5.4855038966314731e-02 0.0000000000000000e+00  -1.3219198733450545e-02 -5.9254257360971438e-02 0.0000000000000000e+00  1.1090096457021411e-03 -6.0448472033443182e-02 0.0000000000000000e+00  1.5260762277999801e-02 -5.9608016483358298e-02 0.0000000000000000e+00  2.8845782477179810e-02 -5.2125795093400130e-02 0.0000000000000000e+00  2.9704549355768897e-02 6.8806926190343636e-03 0.0000000000000000e+00  3.1752880399883318e-02 1.7029990388421792e-03 0.0000000000000000e+00  3.3174545427306808e-02 -2.6955246959499933e-03 0.0000000000000000e+00  3.3809839932455621e-02 -9.5790899239800398e-01 0.0000000000000000e+00  1.8676904608471354e-02 -1.0319297417421622e+00 0.0000000000000000e+00  1.1827406498053417e-02 -9.5454034634926421e-01 0.0000000000000000e+00  0.0000000000000000e+00 0.0000000000000000e+00 0.0000000000000000e+00  0.0000000000000000e+00 0.0000000000000000e+00 0.0000000000000000e+00  -7.2360946984514254e-03 -9.2627898462253244e-01 0.0000000000000000e+00  -2.4526131073896913e-02 -1.0034211543519307e+00 0.0000000000000000e+00  -3.3517539217410339e-02 -9.3229722589867947e-01 0.0000000000000000e+00  -3.4882414726657721e-02 -1.2457072492405316e-02 0.0000000000000000e+00  -3.6480579876149409e-02 -9.0594232269251510e-03 0.0000000000000000e+00  -3.6644303602959762e-02 -6.0296720641290326e-03 0.0000000000000000e+00  -3.3425235926680265e-02 -8.6765613737695063e-02 0.0000000000000000e+00  -1.6662475521737972e-02 -9.1080300820974958e-02 0.0000000000000000e+00  8.0691211763932397e-04 -9.1948424147539315e-02 0.0000000000000000e+00  1.8121412867144571e-02 -9.1647082039527220e-02 0.0000000000000000e+00  3.5037385097924992e-02 -8.3605914953839053e-02 0.0000000000000000e+00  3.5650130643480271e-02 7.3082810843968895e-03 0.0000000000000000e+00  3.7246434857319322e-02 4.0400030300273481e-03 0.0000000000000000e+00  3.7431779883877650e-02 1.0713164974186938e-03 0.0000000000000000e+00  4.0476561062080502e-02 -9.3231089315893767e-01 0.0000000000000000e+00  2.3184346620529542e-02 -1.0071011113601736e+00 0.0000000000000000e+00  1.3686793904773413e-02 -9.3151142778617579e-01 0.0000000000000000e+00  0.0000000000000000e+00 0.0000000000000000e+00 0.0000000000000000e+00  0.0000000000000000e+00 0.0000000000000000e+00 0.0000000000000000e+00  -8.2180578793684504e-03 -8.9936500603403136e-01 0.0000000000000000e+00  -2.6534533273467838e-02 -9.7449374831894298e-01 0.0000000000000000e+00  -3.6963855103293065e-02 -9.0309472262951562e-01 0.0000000000000000e+00  -3.8420435960833839e-02 -1.0909529856217683e-02 0.0000000000000000e+00  -3.9388262096195115e-02 -1.0036850889786614e-02 0.0000000000000000e+00  -3.8853132038212314e-02 -9.4540532499752857e-03 0.0000000000000000e+00  -3.6332332022888991e-02 -1.2368292981161577e-01 0.0000000000000000e+00  -1.8503068013886674e-02 -1.2769707306939534e-01 0.0000000000000000e+00  4.7518035597224415e-04 -1.2808076717550912e-01 0.0000000000000000e+00  1.9307328155962727e-02 -1.2834894799273092e-01 0.0000000000000000e+00  3.8051868468514695e-02 -1.2013210479131112e-01 0.0000000000000000e+00  3.9168213932984232e-02 5.6666143722936017e-03 0.0000000000000000e+00  4.0105294294355109e-02 4.8539714236008873e-03 0.0000000000000000e+00  3.9503905308062977e-02 4.3005960146047881e-03 0.0000000000000000e+00  4.3562043767310404e-02 -9.0259591788465954e-01 0.0000000000000000e+00  2.5418967505896787e-02 -9.7814113934424174e-01 0.0000000000000000e+00  1.4561510460319328e-02 -9.0476908629305686e-01 0.0000000000000000e+00  -5.6593162442990260e-10 -1.0720361624905695e-09 0.0000000000000000e+00  0.0000000000000000e+00 0.0000000000000000e+00 0.0000000000000000e+00  -8.0389112156124421e-03 -8.7192481325723625e-01 0.0000000000000000e+00  -2.5865255988272686e-02 -9.4481897193492848e-01 0.0000000000000000e+00  -3.6213345905845684e-02 -8.7281046506292581e-01 0.0000000000000000e+00  -3.8205857400698789e-02 -8.0064306044667927e-03 0.0000000000000000e+00  -3.8591482487556790e-02 -9.8893905771134157e-03 0.0000000000000000e+00  -3.7488444656648412e-02 -1.1990988271622800e-02 0.0000000000000000e+00  -3.5395568576738118e-02 -1.6149581709958102e-01 0.0000000000000000e+00  -1.8343205086798063e-02 -1.6545216491900147e-01 0.0000000000000000e+00  1.5364177945310925e-04 -1.6523782415482052e-01 0.0000000000000000e+00  1.8531598734927650e-02 -1.6607352273330703e-01 0.0000000000000000e+00  3.7170851418453173e-02 -1.5797730603808682e-01 0.0000000000000000e+00  3.8873037629462245e-02 2.6661155181736725e-03 0.0000000000000000e+00  3.9216235057529733e-02 4.6219197392524062e-03 0.0000000000000000e+00  3.8079063076699900e-02 6.8018634209511463e-03 0.0000000000000000e+00  4.2444988431170026e-02 -8.7199215150431864e-01 0.0000000000000000e+00  2.4900376259289581e-02 -9.4809370790245096e-01 0.0000000000000000e+00  1.4229681780604282e-02 -8.7696923453126929e-01 0.0000000000000000e+00  0.0000000000000000e+00 0.0000000000000000e+00 0.0000000000000000e+00  0.0000000000000000e+00 0.0000000000000000e+00 0.0000000000000000e+00  -6.6565163019663464e-03 -8.4686075958581919e-01 0.0000000000000000e+00  -2.2464020922085475e-02 -9.1756599964514252e-01 0.0000000000000000e+00  -3.1169654081268032e-02 -8.4475630622417286e-01 0.0000000000000000e+00  -3.3780756852389432e-02 -4.3688444541849850e-03 0.0000000000000000e+00  -3.3618331466151272e-02 -8.8614212995200281e-03 0.0000000000000000e+00  -3.2179809247392575e-02 -1.3521181302975126e-02 0.0000000000000000e+00  -3.0510135230961105e-02 -1.9613250617357569e-01 0.0000000000000000e+00  -1.6132152423357752e-02 -2.0027519515124562e-01 0.0000000000000000e+00  -1.1666983074443965e-04 -1.9947102664767205e-01 0.0000000000000000e+00  1.5801275245787821e-02 -2.0080032426604461e-01 0.0000000000000000e+00  3.2342761121490635e-02 -1.9305198069322560e-01 0.0000000000000000e+00  3.4355162842580042e-02 -1.0319174740062605e-03 0.0000000000000000e+00  3.4144285958236362e-02 3.5310792978900797e-03 0.0000000000000000e+00  3.2666265626089978e-02 8.2554732571759760e-03 0.0000000000000000e+00  3.7068872321040669e-02 -8.4384540541995068e-01 0.0000000000000000e+00  2.1601175215746258e-02 -9.2021732147582969e-01 0.0000000000000000e+00  1.2685361419990136e-02 -8.5108495808681317e-01 0.0000000000000000e+00  0.0000000000000000e+00 0.0000000000000000e+00 0.0000000000000000e+00  0.0000000000000000e+00 0.0000000000000000e+00 0.0000000000000000e+00  -4.2007546773026256e-03 -8.2690076733232132e-01 0.0000000000000000e+00  -1.6662118737434593e-02 -8.9571686980434229e-01 0.0000000000000000e+00  -2.2335993132282961e-02 -8.2202951203999386e-01 0.0000000000000000e+00  -2.5456000858486434e-02 -5.6194835709982816e-04 0.0000000000000000e+00  -2.4807673235846824e-02 -7.1810325131185368e-03 0.0000000000000000e+00  -2.3229395567129277e-02 -1.3911859840090097e-02 0.0000000000000000e+00  -2.2177830014675264e-02 -2.2379765169963386e-01 0.0000000000000000e+00  -1.2105926125557777e-02 -2.2835926684279895e-01 0.0000000000000000e+00  -3.1941186935649610e-04 -2.2704900892102636e-01 0.0000000000000000e+00  1.1385431493824779e-02 -2.2874357229145514e-01 0.0000000000000000e+00  2.4055846609621758e-02 -2.2151306807184770e-01 0.0000000000000000e+00  2.5949522694633461e-02 -4.8761869717789978e-03 0.0000000000000000e+00  2.5244789876539737e-02 1.7965421953913825e-03 0.0000000000000000e+00  2.3624078584674562e-02 8.5762037072273558e-03 0.0000000000000000e+00  2.7974327849586329e-02 -8.2125380156857142e-01 0.0000000000000000e+00  1.5863992535409537e-02 -8.9757048608015688e-01 0.0000000000000000e+00  1.0088099364970762e-02 -8.2993690077095028e-01 0.0000000000000000e+00  0.0000000000000000e+00 0.0000000000000000e+00 0.0000000000000000e+00  0.0000000000000000e+00 0.0000000000000000e+00 0.0000000000000000e+00  -9.3618638765688986e-04 -8.1424046157005581e-01 0.0000000000000000e+00  -9.0875753900789176e-03 -8.8168049766729428e-01 0.0000000000000000e+00  -1.0679437877923002e-02 -8.0713779603775682e-01 0.0000000000000000e+00  -1.4144063823659106e-02 2.9479582338155911e-03 0.0000000000000000e+00  -1.3090194448391018e-02 -5.0647052876893577e-03 0.0000000000000000e+00  -1.1544233200649836e-02 -1.3133970436904488e-02 0.0000000000000000e+00  -1.1311371315553978e-02 -2.4146550008807971e-01 0.0000000000000000e+00  -6.7173770577931540e-03 -2.4662355385502074e-01 0.0000000000000000e+00  -4.4488094475190495e-04 -2.4494718215376637e-01 0.0000000000000000e+00  5.7550182850249322e-03 -2.4683690820688384e-01 0.0000000000000000e+00  1.3215412534129870e-02 -2.4023970687347332e-01 0.0000000000000000e+00  1.4583076664835258e-02 -8.4038010053131239e-03 0.0000000000000000e+00  1.3467586387306600e-02 -3.6154285042627