<?xml version="1.0"?>
<VTKFile type="UnstructuredGrid"  version="0.1"  >
<UnstructuredGrid>
<Piece  NumberOfPoints="589" NumberOfCells="1080">
<Points>
<DataArray  type="Float64"  NumberOfComponents="3"  format="ascii">-9 0 0  -8 0 0  -7 0 0  -6 0 0  -5 0 0  -4 0 0  -3 0 0  -2 0 0  -1 0 0  0 0 0  1 0 0  2 0 0  3 0 0  4 0 0  5 0 0  6 0 0  7 0 0  8 0 0  9 0 0  -9 2 0  -8.000002616591649 1.999996489437536 0  -7.000005511162831 1.999993359803827 0  -6.000009269145527 1.999990914275377 0  -5.000015172271224 1.999989265958358 0  -4.000009578283909 1.999992125298588 0  -3.000003708947093 1.999994561180627 0  -2.000000661664784 1.999996727532215 0  -0.9999997691270283 1.999998432175306 0  -2.209350070098055e-07 1.999999183104205 0  0.9999992182618709 1.999998693436703 0  1.999999740478176 1.999997085312883 0  3.000002156090672 1.999995089264549 0  4.000006730286385 1.999992912718149 0  5.000013229782657 1.999991937330305 0  6.000007982914993 1.999992425798279 0  7.000004717980699 1.999994219068227 0  8.000002237233318 1.999996887546599 0  9 2 0  -9 4 0  -8.000004121245002 3.999991455226431 0  -7.000007568675901 3.999983983237578 0  -6.000009957701196 3.999978639732566 0  -5.000011386599459 3.999976442698662 0  -4.000003560833394 3.999977663239763 0  -2.999998117162689 3.999984101703079 0  -1.999996265956691 3.999992464881548 0  -0.9999975338514611 3.999999161867809 0  -5.22153419661576e-07 4.000001883869436 0  0.9999964028250127 3.999999857582762 0  1.999994845858222 3.999994277501627 0  2.999996400900313 3.999986700286144 0  4.000001522781163 3.999979100581268 0  5.000008970366853 3.999976571137693 0  6.00000803806375 3.999979632428947 0  7.000006299189756 3.999984937370108 0  8.000003500380494 3.999991999263037 0  9 4 0  -9 6 0  -8.000008321079537 5.999982130173669 0  -7.000013859812509 5.999966093005791 0  -6.000014486786445 5.999953779553915 0  -5.000009582519172 5.999947016389253 0  -3.999994856070173 5.999956392543702 0  -2.999987887920457 5.999975966074479 0  -1.999989909898939 5.999996474016298 0  -0.9999957464735822 6.000007905712073 0  -1.659390610177714e-06 6.000010268478369 0  0.9999931033085721 6.000006619049074 0  1.999989270992909 5.999996510637177 0  2.999988152714143 5.99997948840575 0  3.999991964944444 5.999961877696679 0  5.000004464915526 5.999953281175484 0  6.000011319507819 5.999957864697432 0  7.000012120073218 5.999968628144318 0  8.000007569703712 5.999983355873965 0  9 6 0  -9 8 0  -8.000023650213457 7.999965475802475 0  -7.000039797522926 7.999933309313773 0  -6.000041140612633 7.999906719593573 0  -5.000021355270278 7.999891041138529 0  -3.999993518755056 7.999934036912945 0  -2.999998069817388 7.999984574150493 0  -2.000007920215099 8.000009313838806 0  -1.000008361920028 8.000012301222464 0  -1.823314973545139e-06 8.000013172472878 0  1.000003231502139 8.000015517977467 0  2.000001815643314 8.000005306901784 0  2.999990538621566 7.999987776567417 0  3.999987281501391 7.999944933362796 0  5.000014590615882 7.999896747810911 0  6.000038816127264 7.999911379134902 0  7.000039343615011 7.999936463226529 0  8.000023715420967 7.999967048002086 0  9 8 0  -9 10 0  -8.000068984556144 9.999939395800888 0  -7.00012494340507 9.999878226562261 0  -6.000152301635538 9.99981602776808 0  -5.000129323715778 9.999752565117836 0  -4.000085623666922 9.99989028371802 0  -3.000091751451274 10.00000892155027 0  -2.000073207078522 9.99998915958356 0  -1.000034449388711 9.999982823225823 0  -5.736021737301169e-06 9.999981291358875 0  1.000022708155909 9.999981362453742 0  2.000060195041567 9.999980479532008 0  3.000093830171292 10.00002178105596 0  4.000090878138728 9.999910567798363 0  5.000139801575895 9.999764353181876 0  6.000161091529681 9.999823092820041 0  7.000131181496399 9.999882301381259 0  8.000072204509491 9.999941274960953 0  9 10 0  -9 12 0  -8.000166392450399 11.99991558687038 0  -7.000324444143732 11.99982728034688 0  -6.000464715807542 11.99973042317371 0  -5.000575535626675 11.99961851651564 0  -4.000553456032225 11.99986792672827 0  -3.000572730204067 12.00011490596839 0  -2.000394275758489 12.0000848558149 0  -1.000196620755469 12.00006844529585 0  8.334506122668661e-06 12.00006493084436 0  1.000215490337682 12.00007479162603 0  2.000420652321397 12.00010101050062 0  3.000615253660034 12.00015109767765 0  4.000595410620967 11.99988709207505 0  5.000609218720919 11.99962103384924 0  6.000488102369872 11.9997329542624 0  7.000339254754882 11.99982909396222 0  8.000173583668682 11.99991650511382 0  9 12 0  -9 14 0  -8.000297103478749 13.99990736368122 0  -7.000594969448113 13.99981055773106 0  -6.000894774336039 13.99970504708839 0  -5.001198805194627 13.99958558454034 0  -4.001201919702092 13.99987517394896 0  -3.001202828713356 14.00016850557249 0  -2.000792259156267 14.00012601631974 0  -1.000388043351601 14.00010250298037 0  1.361496813031284e-05 14.00009508751549 0  1.000416332506846 14.00010281055368 0  2.000823514232203 14.00012610028808 0  3.001237984514984 14.00016624443681 0  4.00124242444358 13.99987630256686 0  5.001244023443625 13.9995882520594 0  6.000925896378452 13.99970598500168 0  7.000614538796714 13.99981082844336 0  8.000306561225655 13.99990741548617 0  9 14 0  -9 16 0  -8.000424683408911 15.99991582693237 0  -7.000857605780737 15.99982867064721 0  -6.001307714778724 15.99973550374141 0  -5.00178544479485 15.99963326761248 0  -4.001802239723339 15.99987855383595 0  -3.001785662821939 16.00012248433288 0  -2.001165036004504 16.00009133776649 0  -1.000569328291985 16.00007222099408 0  1.466027113464848e-05 16.00006473680183 0  1.00059941223739 16.00006860805492 0  2.001197422528684 16.00008381801332 0  3.001821993545914 16.00011054675055 0  4.001840705077559 15.99986835232223 0  5.001825067359327 15.99962595327929 0  6.001336375283147 15.9997306040042 0  7.00087615915293 15.99982560985234 0  8.000433787528067 15.99991434718673 0  9 16 0  -9 18 0  -8.000519222944048 17.99993622488364 0  -7.001051343209123 17.99987083396219 0  -6.001609927619007 17.99980224994396 0  -5.002209891762711 17.99972898647936 0  -4.002235095104243 17.99987884477421 0  -3.002210348897986 18.00002849522788 0  -2.001438399674569 18.0000085915561 0  -1.00070386079981 17.99999546213289 0  1.26458023412546e-05 17.99998901713415 0  1.000729568545399 17.99998910226236 0  2.001465330837445 17.99999550979611 0  3.002239223274517 18.00000794105026 0  4.002265441770339 17.99986223620352 0  5.002240983317651 17.99971697322606 0  6.001632683344397 17.99979382105212 0  7.001066233773731 17.9998654767173 0  8.000526581684355 17.9999336209578 0  9 18 0  -9 20 0  -8.000562095195356 19.99996308437245 0  -7.001139070224622 19.99992577102458 0  -6.001746369082312 19.99988771758031 0  -5.002400566038877 19.99984869419767 0  -4.002429128691507 19.99987817135009 0  -3.002400652790065 19.99990745394883 0  -2.001562415507997 19.99989878487574 0  -1.000766404236777 19.99989200358446 0  8.960062333396585e-06 19.99988721481989 0  1.000784491696298 19.99988434329369 0  2.001580992178657 19.99988314001912 0  3.002420005048478 19.99988316832759 0  4.002448965977969 19.99985886172143 0  5.002420727634855 19.99983487411571 0  6.00176131859635 19.99987781097238 0  7.001148950094942 19.99991938517355 0  8.000567008145952 19.99995995680044 0  8.999999999996408 20.00000000000227 0  -9 22 0  -8.000545376952251 21.99999153280418 0  -7.001105350709518 21.99998366740659 0  -6.001694965440129 21.99997706416888 0  -5.002330158013049 21.99997250159286 0  -4.002357920076862 21.99987639685103 0  -3.00233016040197 21.99978011214428 0  -2.001517821549744 21.99978143782919 0  -1.000746499129898 21.99978058702587 0  4.604125192159222e-06 21.99977775566235 0  1.000755676528867 21.99977292224421 0  2.001526895461148 21.99976585221979 0  3.002339025701411 21.99975609441859 0  4.002366542211837 21.99985739657739 0  5.002338685190152 21.99995891635337 0  6.001701533523421 21.9999672496603 0  7.001109805849088 21.99997730176244 0  8.000547626050668 21.999988403077 0  9 22 0  -9 24 0  -8.000470199607644 24.00001757361099 0  -7.000952914703099 24.0000365144015 0  -6.001460996660289 24.00005824659034 0  -5.002007950604366 24.00008431027504 0  -4.002031710354651 23.999873803184 0  -3.002008050412807 23.99966316568484 0  -2.001309445170386 23.99967278389547 0  -1.000645848294328 23.99967708060707 0  3.781744706125987e-07 23.99967629249578 0  1.000646419974683 23.9996704344534 0  2.001309452594746 23.99965930044753 0  3.002007083192702 23.99964246243404 0  4.002029925898327 23.99985749929766 0  5.002005784337611 24.00007270214711 0  6.001459806798074 24.00004981092303 0  7.000952324013533 24.00003101977088 0  8.00046996295368 24.0000148651825 0  9 24 0  -9 26 0  -8.000344877427979 26.00003814675547 0  -7.000698860240006 26.00007819512906 0  -6.001071277033172 26.0001221022227 0  -5.001471889297568 26.00017193710069 0  -4.001489282313751 25.99987067293403 0  -3.001472236592167 25.9995693278986 0  -2.000961307706046 25.99958539103785 0  -1.000475839061936 25.99959388716682 0  -3.097598167240574e-06 25.99959508236891 0  1.000469347439455 25.99958902300664 0  2.000953916678801 25.99957553578482 0  3.001463312321575 25.99955422767291 0  4.001479134777345 25.99985882178301 0  5.001461157791212 26.00016352933494 0  6.001063857611174 26.00011597173945 0  7.000694207884281 26.00007419195058 0  8.000342637882424 26.0000361703665 0  9 26 0  -9 28 0  -8.000183041022904 28.00005111482836 0  -7.000370899363852 28.00010444162707 0  -6.000568508267267 28.00016224671446 0  -5.000781015719085 28.00022690534637 0  -4.000790487822463 27.99986730325994 0  -3.000781720048578 27.99950767668974 0  -2.000511594680691 27.99952823905356 0  -1.000255040770531 27.99953986989881 0  -5.376993099239875e-06 27.99954286281009 0  1.000243921824333 27.9995372945037 0  2.000499369947066 27.99952302465798 0  3.000767616610704 27.99949969617284 0  4.000774919153642 27.99986105879913 0  5.00076474630526 28.00022249349287 0  6.000557055886937 28.00015902329026 0  7.000363615601853 28.00010233352894 0
[...]
<PointData  Vectors="f_44-0"> 
<DataArray  type="Float64"  Name="f_44-0"  NumberOfComponents="3" format="ascii">0.0000000000000000e+00 0.0000000000000000e+00 0.0000000000000000e+00  -7.2000516759496144e-09 -7.6957172592025269e-01 0.0000000000000000e+00  4.5785887411845641e-08 -7.5766983755641748e-01 0.0000000000000000e+00  7.3297550353321074e-08 -6.3686939075445081e-01 0.0000000000000000e+00  0.0000000000000000e+00 0.0000000000000000e+00 0.0000000000000000e+00  0.0000000000000000e+00 0.0000000000000000e+00 0.0000000000000000e+00  0.0000000000000000e+00 0.0000000000000000e+00 0.0000000000000000e+00  0.0000000000000000e+00 0.0000000000000000e+00 0.0000000000000000e+00  0.0000000000000000e+00 0.0000000000000000e+00 0.0000000000000000e+00  0.0000000000000000e+00 0.0000000000000000e+00 0.0000000000000000e+00  0.0000000000000000e+00 0.0000000000000000e+00 0.0000000000000000e+00  0.0000000000000000e+00 0.0000000000000000e+00 0.0000000000000000e+00  0.0000000000000000e+00 0.0000000000000000e+00 0.0000000000000000e+00  0.0000000000000000e+00 0.0000000000000000e+00 0.0000000000000000e+00  0.0000000000000000e+00 0.0000000000000000e+00 0.0000000000000000e+00  -6.9196769644823399e-09 -7.7208906588086323e-01 0.0000000000000000e+00  4.6271083426762609e-08 -7.5990494736915215e-01 0.0000000000000000e+00  7.2309568421908234e-08 -6.3812551337155965e-01 0.0000000000000000e+00  0.0000000000000000e+00 0.0000000000000000e+00 0.0000000000000000e+00  0.0000000000000000e+00 0.0000000000000000e+00 0.0000000000000000e+00  3.4945707015130513e-04 -6.8854575694580877e-01 0.0000000000000000e+00  1.9088486398827239e-03 -7.5578239069086806e-01 0.0000000000000000e+00  5.8854484099316699e-03 -6.9078412296996294e-01 0.0000000000000000e+00  4.0743786143365241e-04 -2.8721625827230271e-04 0.0000000000000000e+00  5.2328851061206479e-04 -4.4769076715460329e-04 0.0000000000000000e+00  3.2774347355695723e-04 -2.9010111036959180e-04 0.0000000000000000e+00  2.7909104300494349e-04 -3.4201381453591072e-05 0.0000000000000000e+00  1.7099197158968558e-04 1.1061778981309047e-04 0.0000000000000000e+00  5.7313857952770451e-05 9.7077121188180943e-05 0.0000000000000000e+00  -6.0231916639381328e-05 -3.3552562399664972e-05 0.0000000000000000e+00  -1.4123354904380881e-04 -2.2073679145639225e-04 0.0000000000000000e+00  -2.1883249190406625e-04 -4.9525451276571160e-04 0.0000000000000000e+00  -3.0220768016317847e-04 -5.8211110336377193e-04 0.0000000000000000e+00  -4.6202546511685667e-04 -9.6092771836085277e-04 0.0000000000000000e+00  4.8474083288462173e-04 -6.9053214887472791e-01 0.0000000000000000e+00  2.1006264655167922e-03 -7.5796277156851677e-01 0.0000000000000000e+00  6.0857643477264436e-03 -6.9272794561670203e-01 0.0000000000000000e+00  0.0000000000000000e+00 0.0000000000000000e+00 0.0000000000000000e+00  0.0000000000000000e+00 0.0000000000000000e+00 0.0000000000000000e+00  2.5702952007682343e-03 -6.9118567734811398e-01 0.0000000000000000e+00  -3.6985359923877623e-04 -7.5159381389741975e-01 0.0000000000000000e+00  2.7458419280106659e-03 -6.9230695500560246e-01 0.0000000000000000e+00  -5.3433885155943384e-04 -9.5856412653460177e-04 0.0000000000000000e+00  -1.2560064386115151e-05 -2.8501497381058788e-04 0.0000000000000000e+00  1.5119489452181063e-04 3.5068201351766518e-04 0.0000000000000000e+00  1.3661938010494374e-04 5.0575178643457808e-04 0.0000000000000000e+00  -4.8547058145964438e-05 3.0149247167349621e-04 0.0000000000000000e+00  -1.7368002843804893e-04 5.9241690760464511e-05 0.0000000000000000e+00  -2.0878684553235423e-04 -2.2401212471574637e-05 0.0000000000000000e+00  -3.5373937252272485e-05 -2.9599333581039597e-04 0.0000000000000000e+00  6.2413500481853674e-06 -6.1766337467462212e-04 0.0000000000000000e+00  -2.7067425505646621e-05 -5.1106443950082764e-04 0.0000000000000000e+00  -3.8235310313517777e-05 -2.3999424340184170e-04 0.0000000000000000e+00  2.8084499074845209e-03 -6.9311273240371774e-01 0.0000000000000000e+00  -1.5968319085534185e-04 -7.5352408104520108e-01 0.0000000000000000e+00  2.8658529151817927e-03 -6.9411070407818654e-01 0.0000000000000000e+00  0.0000000000000000e+00 0.0000000000000000e+00 0.0000000000000000e+00  0.0000000000000000e+00 0.0000000000000000e+00 0.0000000000000000e+00  2.3816875973795204e-03 -6.9174189742121550e-01 0.0000000000000000e+00  -5.7702960217427622e-04 -7.5177254449121877e-01 0.0000000000000000e+00  2.2793804682837244e-03 -6.9230496887396054e-01 0.0000000000000000e+00  -1.0263368107926046e-03 -1.9192123909545907e-04 0.0000000000000000e+00  -3.2813009532230841e-04 8.2807141021259913e-04 0.0000000000000000e+00  -1.9769580816412493e-04 9.0253974838880367e-04 0.0000000000000000e+00  -5.5881606572115688e-04 -1.7795185781147051e-04 0.0000000000000000e+00  -3.8990690699032283e-04 -6.2509623080504457e-04 0.0000000000000000e+00  -9.4881532587261715e-05 -1.6025813201194959e-04 0.0000000000000000e+00  1.1437380802715788e-04 2.5767161098852543e-05 0.0000000000000000e+00  -4.0382854639403132e-05 -8.3147221114115660e-05 0.0000000000000000e+00  8.8886946900049380e-05 -2.4676927334104092e-04 0.0000000000000000e+00  3.8749445965555429e-04 -1.2753897478143727e-03 0.0000000000000000e+00  1.2398002155680033e-04 -2.1959788762073709e-03 0.0000000000000000e+00  3.3429761821093325e-03 -6.9357064583768635e-01 0.0000000000000000e+00  2.2962577022952530e-04 -7.5320551376868505e-01 0.0000000000000000e+00  2.7434906366012252e-03 -6.9319956967639484e-01 0.0000000000000000e+00  0.0000000000000000e+00 0.0000000000000000e+00 0.0000000000000000e+00  0.0000000000000000e+00 0.0000000000000000e+00 0.0000000000000000e+00  1.7629552005183071e-03 -6.9093363729688007e-01 0.0000000000000000e+00  -1.6454672034928776e-03 -7.5163932134407041e-01 0.0000000000000000e+00  3.3940547813998028e-04 -6.9239330250208286e-01 0.0000000000000000e+00  -4.0467881214828515e-03 -2.4321510611155952e-03 0.0000000000000000e+00  -4.1332073606742143e-03 -1.4794154942558607e-04 0.0000000000000000e+00  -1.4039473272488914e-03 -1.6866673176996550e-03 0.0000000000000000e+00  -1.4835633056861990e-03 -2.7783617099615019e-03 0.0000000000000000e+00  2.0467711240951485e-05 -1.3048641623506622e-03 0.0000000000000000e+00  6.0203603899334980e-04 -1.0477062628455182e-03 0.0000000000000000e+00  1.5447630582692239e-03 -2.4330910728749600e-03 0.0000000000000000e+00  1.4554879098922998e-03 -2.7231960241355771e-04 0.0000000000000000e+00  5.1538758988599245e-03 -1.8796644446735676e-03 0.0000000000000000e+00  5.4792254979052811e-03 -5.3755783520347614e-03 0.0000000000000000e+00  3.7737769264890950e-03 -5.8603087249144183e-03 0.0000000000000000e+00  4.4206494305649106e-03 -6.9310595004216646e-01 0.0000000000000000e+00  1.1996431512673179e-03 -7.5212929384901783e-01 0.0000000000000000e+00  3.2130746366638031e-03 -6.9190221218092118e-01 0.0000000000000000e+00  0.0000000000000000e+00 0.0000000000000000e+00 0.0000000000000000e+00  0.0000000000000000e+00 0.0000000000000000e+00 0.0000000000000000e+00  4.6591305088494305e-04 -6.8783629385541367e-01 0.0000000000000000e+00  -4.5683018364155621e-03 -7.4890774648515757e-01 0.0000000000000000e+00  -4.3088541547292199e-03 -6.9134527644660226e-01 0.0000000000000000e+00  -1.8352950192832951e-02 1.7396097739911789e-03 0.0000000000000000e+00  -1.3925437850504232e-02 2.3395680388996502e-03 0.0000000000000000e+00  -8.3771653104360109e-03 2.8879624322505956e-03 0.0000000000000000e+00  -8.2930266915279022e-04 -5.6629413592243581e-03 0.0000000000000000e+00  -5.8190921618671153e-05 -2.3563154028933982e-03 0.0000000000000000e+00  1.3658832241042165e-03 -1.7492126286600108e-03 0.0000000000000000e+00  2.6759030238669994e-03 -1.8524726639284343e-03 0.0000000000000000e+00  3.1749526662477380e-03 -2.0743005835172287e-03 0.0000000000000000e+00  1.2271388098020789e-02 -2.4228819027458173e-03 0.0000000000000000e+00  1.4555958765502986e-02 -7.0018058342925949e-03 0.0000000000000000e+00  1.6108992152835303e-02 -1.0816283239994468e-02 0.0000000000000000e+00  8.1963523655913632e-03 -6.9150656804174360e-01 0.0000000000000000e+00  3.4916064060911156e-03 -7.4931411455416386e-01 0.0000000000000000e+00  4.2420756319653400e-03 -6.8896371890042807e-01 0.0000000000000000e+00  0.0000000000000000e+00 0.0000000000000000e+00 0.0000000000000000e+00  0.0000000000000000e+00 0.0000000000000000e+00 0.0000000000000000e+00  -1.3123308097328489e-03 -6.8115966254307059e-01 0.0000000000000000e+00  -8.4293853705377005e-03 -7.4242322591761933e-01 0.0000000000000000e+00  -9.2054167449022659e-03 -6.8687004611247993e-01 0.0000000000000000e+00  -1.8779094404559899e-02 -3.1899066190452449e-03 0.0000000000000000e+00  -2.1232652260501955e-02 2.5400769759054845e-03 0.0000000000000000e+00  -2.5720781899370188e-02 1.1820049926219260e-02 0.0000000000000000e+00  -1.2277913194039551e-02 -1.2785553550210802e-02 0.0000000000000000e+00  -5.0241012213199550e-03 -1.4870441624922048e-02 0.0000000000000000e+00  1.2011658555463505e-03 -1.4601988466188305e-02 0.0000000000000000e+00  6.8560293160859556e-03 -1.3555233011055118e-02 0.0000000000000000e+00  1.0815244464948217e-02 -1.0356889339672609e-02 0.0000000000000000e+00  1.6715241441544532e-02 -1.2375229026012370e-03 0.0000000000000000e+00  2.0203332270189764e-02 -5.3835312664529235e-03 0.0000000000000000e+00  2.3685740430545426e-02 -7.4960524549233191e-03 0.0000000000000000e+00  1.4817875325478120e-02 -6.8719639776269004e-01 0.0000000000000000e+00  7.2285656979318904e-03 -7.4314741809870533e-01 0.0000000000000000e+00  5.8950137077655443e-03 -6.8294383613820353e-01 0.0000000000000000e+00  0.0000000000000000e+00 0.0000000000000000e+00 0.0000000000000000e+00  0.0000000000000000e+00 0.0000000000000000e+00 0.0000000000000000e+00  -3.5736466296449735e-03 -6.6970562364417607e-01 0.0000000000000000e+00  -1.3490180659843256e-02 -7.3063480755941579e-01 0.0000000000000000e+00  -1.7399253139084442e-02 -6.7668227735388620e-01 0.0000000000000000e+00  -2.2028663913248040e-02 -7.7628258301331811e-03 0.0000000000000000e+00  -2.3858642186388179e-02 -2.4574984734378755e-03 0.0000000000000000e+00  -2.4874795270949046e-02 5.9112667260211721e-04 0.0000000000000000e+00  -1.7889660756315755e-02 -2.5633686285531691e-02 0.0000000000000000e+00  -8.3525987971439161e-03 -3.0218527994991883e-02 0.0000000000000000e+00  1.0137125283852593e-03 -3.0831900781097772e-02 0.0000000000000000e+00  1.0212164260671716e-02 -2.9609444455243942e-02 0.0000000000000000e+00  1.8807951819752436e-02 -2.3629907398338038e-02 0.0000000000000000e+00  2.3007255414718260e-02 3.7737131963846522e-03 0.0000000000000000e+00  2.4783034370560324e-02 -1.5213457382696513e-03 0.0000000000000000e+00  2.5761110789872751e-02 -7.6396676165198752e-03 0.0000000000000000e+00  2.2737446468726087e-02 -6.7643057219173275e-01 0.0000000000000000e+00  1.2380951862943362e-02 -7.3208671318710661e-01 0.0000000000000000e+00  8.0762537082154744e-03 -6.7245349570284518e-01 0.0000000000000000e+00  0.0000000000000000e+00 0.0000000000000000e+00 0.0000000000000000e+00  0.0000000000000000e+00 0.0000000000000000e+00 0.0000000000000000e+00  -5.8634025864535604e-03 -6.5301447420055825e-01 0.0000000000000000e+00  -1.8569047677119661e-02 -7.1288252791650786e-01 0.0000000000000000e+00  -2.5540603721315322e-02 -6.6000663798746562e-01 0.0000000000000000e+00  -2.9132417870301196e-02 -1.0228694276413323e-02 0.0000000000000000e+00  -3.0816599302193323e-02 -5.5493500078404043e-03 0.0000000000000000e+00  -3.1831400768435651e-02 -7.1406503710388588e-04 0.0000000000000000e+00  -2.5108637143792908e-02 -4.7632198590399751e-02 0.0000000000000000e+00  -1.2224512601070249e-02 -5.2168669266919841e-02 0.0000000000000000e+00  8.9503485754194409e-04 -5.3281202107580340e-02 0.0000000000000000e+00  1.3889944007664242e-02 -5.2330745863027391e-02 0.0000000000000000e+00  2.6561417621094409e-02 -4.4826158078229011e-02 0.0000000000000000e+00  2.9803036580669830e-02 5.5978951634573495e-03 0.0000000000000000e+00  3.1333249168631332e-02 7.0148695048638141e-04 0.0000000000000000e+00  3.2255593964464209e-02 -3.6321250046984902e-03 0.0000000000000000e+00  3.0525007106666412e-02 -6.5942130199913518e-01 0.0000000000000000e+00  1.7607375762150986e-02 -7.1493578754635601e-01 0.0000000000000000e+00  1.0304419415046978e-02 -6.5669838918656076e-01 0.0000000000000000e+00  0.0000000000000000e+00 0.0000000000000000e+00 0.0000000000000000e+00  0.0000000000000000e+00 0.0000000000000000e+00 0.0000000000000000e+00  -7.6578217479806943e-03 -6.3177428213824960e-01 0.0000000000000000e+00  -2.2476932902079423e-02 -6.8989493365896648e-01 0.0000000000000000e+00  -3.1921141906767793e-02 -6.3760168781570237e-01 0.0000000000000000e+00  -3.5609754656575433e-02 -1.0178971260940676e-02 0.0000000000000000e+00  -3.6848925125197697e-02 -6.9772350030472977e-03 0.0000000000000000e+00  -3.6825245589297999e-02 -4.0397226432932806e-03 0.0000000000000000e+00  -3.0949032474050189e-02 -7.6249568192777700e-02 0.0000000000000000e+00  -1.5402781665489742e-02 -8.1285903301098056e-02 0.0000000000000000e+00  6.3182434122500573e-04 -8.2153394720997655e-02 0.0000000000000000e+00  1.6565597992267811e-02 -8.1613893022336445e-02 0.0000000000000000e+00  3.2354313653474666e-02 -7.3044734669363884e-02 0.0000000000000000e+00  3.6229871899849213e-02 5.3850002731469096e-03 0.0000000000000000e+00  3.7471811465331697e-02 2.3068077298460396e-03 0.0000000000000000e+00  3.7465250102167440e-02 -5.5614965385460363e-04 0.0000000000000000e+00  3.6765880685416620e-02 -6.3647059352624480e-01 0.0000000000000000e+00  2.1757012340692015e-02 -6.9227326223621732e-01 0.0000000000000000e+00  1.2056788354982122e-02 -6.3609386044767036e-01 0.0000000000000000e+00  0.0000000000000000e+00 0.0000000000000000e+00 0.0000000000000000e+00  0.0000000000000000e+00 0.0000000000000000e+00 0.0000000000000000e+00  -8.5590120575175007e-03 -6.0770687270423585e-01 0.0000000000000000e+00  -2.4333583921006704e-02 -6.6358071182689682e-01 0.0000000000000000e+00  -3.5094019457036274e-02 -6.1148197571384821e-01 0.0000000000000000e+00  -3.9241870518469703e-02 -8.4484287163581057e-03 0.0000000000000000e+00  -4.0052161622143513e-02 -7.6356091117747351e-03 0.0000000000000000e+00  -3.9512960997006547e-02 -7.0277550873813158e-03 0.0000000000000000e+00  -3.3706263587690480e-02 -1.0935748650699005e-01 0.0000000000000000e+00  -1.7090043288047571e-02 -1.1479885984149346e-01 0.0000000000000000e+00  3.3799814048969952e-04 -1.1528987744085248e-01 0.0000000000000000e+00  1.7673533481638890e-02 -1.1519443205962801e-01 0.0000000000000000e+00  3.5121764348273757e-02 -1.0581163419324575e-01 0.0000000000000000e+00  3.9781952823361347e-02 3.5690723233884466e-03 0.0000000000000000e+00  4.0571992566641304e-02 2.8345355055447554e-03 0.0000000000000000e+00  3.9986463707063609e-02 2.2833310724296339e-03 0.0000000000000000e+00  3.9641413932099800e-02 -6.0992102334778153e-01 0.0000000000000000e+00  2.3785084467572871e-02 -6.6593163085427498e-01 0.0000000000000000e+00  1.2877999621033708e-02 -6.1220437176489251e-01 0.0000000000000000e+00  5.0655242770451977e-10 6.2169121450591777e-10 0.0000000000000000e+00  0.0000000000000000e+00 0.0000000000000000e+00 0.0000000000000000e+00  -8.3541126040305742e-03 -5.8318996361065467e-01 0.0000000000000000e+00  -2.3688131764308229e-02 -6.3658212003116910e-01 0.0000000000000000e+00  -3.4339371127421858e-02 -5.8439152226988766e-01 0.0000000000000000e+00  -3.8880475417924179e-02 -5.7285468835798570e-03 0.0000000000000000e+00  -3.9281090158944293e-02 -7.5081768142294192e-03 0.0000000000000000e+00  -3.8346396949035841e-02 -9.4401295292838409e-03 0.0000000000000000e+00  -3.2875342451941292e-02 -1.4324896928489608e-01 0.0000000000000000e+00  -1.6933352194069544e-02 -1.4933671978351606e-01 0.0000000000000000e+00  4.7657809737120977e-05 -1.4936408428103284e-01 0.0000000000000000e+00  1.6958843598530619e-02 -1.4971447015954781e-01 0.0000000000000000e+00  3.4251073293180369e-02 -1.3976075971981231e-01 0.0000000000000000e+00  3.9293747340964739e-02 7.6954591254489941e-04 0.0000000000000000e+00  3.9663688904607690e-02 2.6360112811902106e-03 0.0000000000000000e+00  3.8705371470231432e-02 4.6587772930211570e-03 0.0000000000000000e+00  3.8579591810651348e-02 -5.8264952573022399e-01 0.0000000000000000e+00  2.3257097134692133e-02 -6.3867973149488011e-01 0.0000000000000000e+00  1.2564838302982842e-02 -5.8741528522066022e-01 0.0000000000000000e+00  0.0000000000000000e+00 0.0000000000000000e+00 0.0000000000000000e+00  0.0000000000000000e+00 0.0000000000000000e+00 0.0000000000000000e+00  -7.0160292564785337e-03 -5.6082385029742843e-01 0.0000000000000000e+00  -2.0509539114052042e-02 -6.1178914260533768e-01 0.0000000000000000e+00  -2.9600906117077597e-02 -5.5929258677695948e-01 0.0000000000000000e+00  -3.4210070112121495e-02 -2.5536317500243449e-03 0.0000000000000000e+00  -3.4211132745718395e-02 -6.7751039707082622e-03 0.0000000000000000e+00  -3.3066202637157475e-02 -1.1111679784830512e-02 0.0000000000000000e+00  -2.8384537543537643e-02 -1.7425965596075627e-01 0.0000000000000000e+00  -1.4895262740422697e-02 -1.8116736112602741e-01 0.0000000000000000e+00  -2.0214718306981876e-04 -1.8074218553917526e-01 0.0000000000000000e+00  1.4439321473175998e-02 -1.8148450866800417e-01 0.0000000000000000e+00  2.9724597812657457e-02 -1.7121949757225352e-01 0.0000000000000000e+00  3.4493313700594191e-02 -2.4514999411888914e-03 0.0000000000000000e+00  3.4457501646240701e-02 1.8502312702563394e-03 0.0000000000000000e+00  3.3284572001527235e-02 6.2629677275669064e-03 0.0000000000000000e+00  3.3560010091114936e-02 -5.5764977475010324e-01 0.0000000000000000e+00  2.0160197887444192e-02 -6.1347542906594066e-01 0.0000000000000000e+00  1.1114137720595827e-02 -5.6437848135910440e-01 0.0000000000000000e+00  0.0000000000000000e+00 0.0000000000000000e+00 0.0000000000000000e+00  0.0000000000000000e+00 0.0000000000000000e+00 0.0000000000000000e+00  -4.6757019108114454e-03 -5.4303995388905846e-01 0.0000000000000000e+00  -1.5115993182919771e-02 -5.9191052268157551e-01 0.0000000000000000e+00  -2.1365221197166381e-02 -5.3894779936626980e-01 0.0000000000000000e+00  -2.5628181504913541e-02 6.0503956860751711e-04 0.0000000000000000e+00  -2.5260876827950866e-02 -5.5990187180331510e-03 0.0000000000000000e+00  -2.4057752416621864e-02 -1.1879288365752015e-02 0.0000000000000000e+00  -2.0702658967041928e-02 -1.9899414491276735e-01 0.0000000000000000e+00  -1.1193974302447817e-02 -2.0681117754266323e-01 0.0000000000000000e+00  -3.9267909229761481e-04 -2.0600401400983823e-01 0.0000000000000000e+00  1.0370780113829327e-02 -2.0704186832907220e-01 0.0000000000000000e+00  2.2013360249148767e-02 -1.9674690893805888e-01 0.0000000000000000e+00  2.5802641414874355e-02 -5.6336725189494122e-03 0.0000000000000000e+00  2.5391003587340762e-02 6.3058864407129246e-04 0.0000000000000000e+00  2.4157196757214037e-02 6.9676671932046514e-03 0.0000000000000000e+00  2.5099320793816667e-02 -5.3767032104254331e-01 0.0000000000000000e+00  1.4819457862211994e-02 -5.9308207091750298e-01 0.0000000000000000e+00  8.6762677041268572e-03 -5.4560145699394402e-01 0.0000000000000000e+00  0.0000000000000000e+00 0.0000000000000000e+00 0.0000000000000000e+00  0.0000000000000000e+00 0.0000000000000000e+00 0.0000000000000000e+00  -1.5868640202556601e-03 -5.3178714890563805e-01 0.0000000000000000e+00  -8.0941221380116442e-03 -5.7912992686519127e-01 0.0000000000000000e+00  -1.0537540021453394e-02 -5.2559115475843554e-01 0.0000000000000000e+00  -1.4088191567764407e-02 3.3702103755177907e-03 0.0000000000000000e+00  -1.3398494338460715e-02 -4.1293681518463849e-03 0.0000000000000000e+00  -1.2265842454594198e-02 -1.1667347748429374e-02 0.0000000000000000e+00  -1.0673589226444642e-02 -2.1475321135805620e-01 0.0000000000000000e+00  -6.2444086676457016e-03 -2.2346027274635882e-01 0.0000000000000000e+00  -5.1186287752374808e-04 -2.2238405507704359e-01 0.0000000000000000e+00  5.1912125403859371e-03 -2.2358850711895076e-01 0.0000000000000000e+00  1.1964199043840872e-02 -2.1355324478799551e-01 0.0000000000000000e+00  1.4191022072366355e-02 -8.4032068931818495e-03 0.0000000000000000e+00  1.3451603319150565e-02 -8.7084345087273