<?xml version="1.0"?>
<VTKFile type="UnstructuredGrid"  version="0.1"  >
<UnstructuredGrid>
<Piece  NumberOfPoints="589" NumberOfCells="1080">
<Points>
<DataArray  type="Float64"  NumberOfComponents="3"  format="ascii">-9 0 0  -8 0 0  -7 0 0  -6 0 0  -5 0 0  -4 0 0  -3 0 0  -2 0 0  -1 0 0  0 0 0  1 0 0  2 0 0  3 0 0  4 0 0  5 0 0  6 0 0  7 0 0  8 0 0  9 0 0  -9 2 0  -7.999997167582705 2.000003690697431 0  -6.999994128801558 2.000006942375387 0  -5.999990362853697 2.000009399846927 0  -4.999984647473642 2.000010909686172 0  -3.999990508916482 2.0000080745017 0  -2.999996490784027 2.000005473361119 0  -1.999999448415689 2.00000306400062 0  -1.000000026318122 2.000001136419104 0  9.155506706668497e-07 2.000000211917045 0  1.000002073457848 2.00000058341794 0  2.000002221645088 2.000002072996284 0  3.000000590350759 2.000003823418881 0  3.999997075417131 2.000005417396336 0  4.999992198196074 2.000005172273255 0  5.999995685571397 2.000005460225697 0  6.999997565153528 2.000004410163414 0  7.999998860151431 2.000002440655045 0  9 2 0  -9.000000000004983 4 0  -7.999995160594424 4.000009137547107 0  -6.999991166263916 4.00001706163399 0  -5.999988523426969 4.000022590254193 0  -4.999987166429066 4.000024610724251 0  -3.999995439542601 4.000023060463265 0  -3.000000962791318 4.000015823943525 0  -2.000002423979098 4.000006507823969 0  -1.000000367264414 3.99999896845161 0  3.612522385304683e-06 3.999995719917137 0  1.000007750387866 3.999997474240585 0  2.000010379257053 4.000002815893295 0  3.000009861351422 4.000009970955746 0  4.000005722738823 4.000016719379908 0  4.999999091864769 4.000017468792643 0  5.99999780232205 4.000016272531266 0  6.999997468646622 4.000012498152279 0  7.999998340892096 4.000006765941647 0  9 4 0  -9 6 0  -7.999989773175136 6.000019438581418 0  -6.999982797732993 6.000036763073426 0  -5.999981540654582 6.000049813555401 0  -4.999986673444053 6.000056561848782 0  -4.000002526731675 6.000045611850196 0  -3.00000959776766 6.000023419637374 0  -2.00000639341533 6.000000316824854 0  -0.9999990417563785 5.999987639893138 0  8.158102838601554e-06 5.999984924697537 0  1.000014452936441 5.999988404042637 0  2.000019233447421 5.999998372696308 0  3.00002125707053 6.000015262689887 0  4.00001821619097 6.000032388034471 0  5.000006060358378 6.000039813786015 0  5.999996095569523 6.000037397543888 0  6.999992548385283 6.000028417715937 0  7.999994674095329 6.000015226376479 0  9 6 0  -9 8 0  -7.99997137896794 8.000038197538526 0  -6.999951555152838 8.000073562207218 0  -5.999948998138655 8.000102247189206 0  -4.999970801159309 8.000117923644176 0  -4.000001796764731 8.000068469954499 0  -2.999994725951718 8.000010722976265 0  -1.99998196005112 7.999983384839584 0  -0.9999804777150317 7.999981295625259 0  1.264279672428269e-05 7.999980846826001 0  1.000007190682386 7.999978086400536 0  2.000008752063586 7.999987896311146 0  3.00002119804784 8.000004678469191 0  4.000025489934871 8.000048121664515 0  4.999997564236763 8.000097372988773 0  5.999968717284208 8.00008477885306 0  6.999964935395803 8.000061184751603 0  7.999978205602449 8.000031827989904 0  9 8 0  -9 10 0  -7.999917787736567 10.00006829446713 0  -6.99985123700999 10.00013709012862 0  -5.999819007849915 10.00020673144475 0  -4.999846979876836 10.0002772077146 0  -3.999896941447304 10.00011550513496 0  -2.999886409556114 9.999977080858827 0  -1.999905349018045 10.0000041682187 0  -0.9999489670278902 10.00001292689675 0  1.983317098700381e-05 10.00001505964649 0  0.9999894547739527 10.00001458175059 0  1.999949690354206 10.00001418191119 0  2.999913804824491 9.999967254059124 0  3.999917592357493 10.000082505717 0  4.999866932053444 10.00023519188465 0  5.99984106425212 10.00017617076586 0  6.999869105181117 10.0001170082822 0  7.99992763477968 10.00005831813281 0  9 10 0  -9 12 0  -7.999801511830847 12.00009640081291 0  -6.999613569823483 12.00019725951037 0  -5.999448091555894 12.00030791804699 0  -4.999319750569483 12.00043586132791 0  -3.999345722388063 12.00013772622942 0  -2.999320145614366 11.99984214922693 0  -1.999510459172459 11.99988178743458 0  -0.9997264300513422 11.99990532960601 0  4.685392309630376e-05 11.99991371463511 0  0.9998157279875712 11.99990664247307 0  1.999584954479962 11.99988107959907 0  2.999363593365838 11.99982911525623 0  3.999384785769404 12.00010488313859 0  4.999372015799356 12.00038260773538 0  5.99949770792617 12.00026815187018 0  6.999651286662314 12.0001709569797 0  7.999821701331152 12.00008332910106 0  9 12 0  -9 14 0  -7.99964297045254 14.00010669197513 0  -6.999285918256703 14.00021825788181 0  -5.998928404778374 14.00034000702231 0  -4.998568776184418 14.00047810019431 0  -3.998565503435027 14.00012488898409 0  -2.998561117429475 13.99976698438122 0  -1.999013092494971 13.99982382029572 0  -0.9994609905373325 13.99985838708337 0  9.150912728365948e-05 13.99987422089063 0  0.9996406735015378 13.99987269165634 0  1.999182745764722 13.99985361820176 0  2.998714380469388 13.99981586489686 0  3.99870898562871 14.00011388589515 0  4.998709508075541 14.00040960921414 0  5.999042657190815 14.00029113690296 0  6.99936603901362 14.00018666574224 0  7.999684179537769 14.00009116004326 0  9 14 0  -9 16 0  -7.999484407753712 16.00009749854198 0  -6.998959927922131 16.00019854659737 0  -5.998416883364034 16.00030675452836 0  -4.99784389884362 16.00042578212451 0  -3.997824470858447 16.0001168272212 0  -2.997841018067251 15.99980923626677 0  -1.998532312332193 15.99985501251295 0  -0.999197276526022 15.99988644241289 0  0.0001494851269976429 15.99990423749734 0  0.999494078546842 15.99990897330538 0  1.99882250559932 15.99990093047916 0  2.998119796911442 15.99988016356086 0  3.998098828481473 16.00012012507432 0  4.998117910802309 16.00036007038642 0  5.998626428180575 16.00025814783326 0  6.99910160915405 16.00016653390423 0  7.999555851935577 16.00008161920885 0  9 16 0  -9 18 0  -7.999361276550499 18.00007411009513 0  -6.998707983354305 18.00015020724027 0  -5.998024782192244 18.0002302412985 0  -4.997294766521381 18.00031606525817 0  -3.997265117782792 18.00011295047586 0  -2.99729175882181 17.99990986686541 0  -1.998157201300772 17.99994365953936 0  -0.9989806398182856 17.99996910459839 0  0.0002161046246378457 17.99998655727137 0  0.9994122600504292 17.99999643311935 0  1.998587078966491 17.99999919897979 0  2.997718838437501 17.99999541449149 0  3.997689833283022 18.00012486288693 0  4.99771823170451 18.00025360305889 0  5.998343267252407 18.00018394285502 0  6.998920761103083 18.00011961628073 0  7.999467808338651 18.00005890000705 0  9 18 0  -9 20 0  -7.999296312784585 20.0000427714602 0  -6.998575452892559 20.0000861223637 0  -5.997819584335312 20.00013057301494 0  -4.997009536575557 20.00017651951566 0  -3.996975525690109 20.00011076920829 0  -2.997007210680956 20.00004500986162 0  -1.997950486844736 20.00006574431623 0  -0.9988449231676163 20.00008378561429 0  0.0002850542592309715 20.00009923204889 0  0.9994159219672614 20.00011237821781 0  1.998524202523485 20.00012370981178 0  2.997585609076963 20.00013392018485 0  3.997553893030924 20.00012706405288 0  4.997585903365661 20.00011960349674 0  5.998249991052242 20.00008840830813 0  6.998861530913574 20.00005825968897 0  7.999439099745562 20.00002891421568 0  8.99999999996882 19.9999999999985 0  -9 22 0  -7.999299938041417 22.00000911227213 0  -6.998582743170711 22.00001763654457 0  -5.997830748477488 22.00002491922519 0  -4.997025216834266 22.00003017401061 0  -3.996991791782824 22.00011033541157 0  -2.997023387035255 22.00019044069492 0  -1.997939505892578 22.00019861707336 0  -0.9988070428567019 22.00020886229309 0  0.0003504309219717987 22.0002211234868 0  0.9995100889327003 22.00023559516114 0  1.998649165854845 22.00025271526336 0  2.997744275800454 22.0002731703793 0  3.997714498833522 22.00012748860351 0  4.997745360558577 21.99998128475139 0  5.998366633113239 21.99998868803073 0  6.998938022799204 21.99999369014379 0  7.999476991502061 21.99999720141764 0  9 22 0  -9 24 0  -7.999371994431646 23.99997780394838 0  -6.998729019787006 23.99995411475295 0  -5.998055707929383 23.99992737271028 0  -4.997335892149541 23.99989588677824 0  -3.997306923502724 24.0001111739871 0  -2.99733448340183 24.0003263251861 0  -1.998123205442784 24.00032320022686 0  -0.9988693699802971 24.0003258609644 0  0.0004070751774632654 24.00033415804076 0  0.9996867535595196 24.00034820159934 0  1.998950358251233 24.00036836078512 0  2.998178150105614 24.00039526610509 0  3.998153887104648 24.00012637837379 0  4.99817979096758 23.99985701108625 0  5.998682538051233 23.9998985745488 0  6.999144039581283 23.99993508551723 0  7.999578651523628 23.99996834002891 0  9 24 0  -9 26 0  -7.999503818629687 25.99995246883861 0  -6.998996423570402 25.99990280178214 0  -5.99846633948268 25.99984879736895 0  -4.997901552665905 25.9997881246057 0  -3.997879915995265 26.00011285171093 0  -2.997900456310597 26.00043738162764 0  -1.998477470383868 26.00042460815106 0  -0.9990222853154375 26.00042028247695 0  0.0004508023989037203 26.00042417360771 0  0.9999278947198105 26.00043631064453 0  1.999395168515978 26.00045698424875 0  2.998838551325235 26.00048674719309 0  3.998822382573961 26.00012405560128 0  4.99884058359953 25.99976094860147 0  5.999163146500447 25.99982867680995 0  6.999457444199277 25.99988951152809 0  7.999733281169109 25.99994586052931 0  9 26 0  -9 28 0  -7.999680374206799 27.99993567829709 0  -6.999354356142107 27.9998688366973 0  -5.999015425227743 27.99979689091484 0  -4.998656782010065 27.99971712885002 0  -3.998644355614626 28.00011500727471 0  -2.998655845502145 28.00051263896404 0  -1.99896085589242 28.00049219359137 0  -0.999246954143607 28.00048180723637 0  0.0004785286115842597 28.00048117163859 0  1.000208490148657 28.00049023703585 0  1.999935905441778 28.00050921160494 0  2.999653676351516 28.00053856174419 0  3.999647217323635 28.00012089883882 0  4.999655976820169 27.99970289121422 0  5.999756515278794 27.99978636163844 0  6.999844500025089 27.99986188735
[...]
<PointData  Vectors="f_44-0"> 
<DataArray  type="Float64"  Name="f_44-0"  NumberOfComponents="3" format="ascii">0.0000000000000000e+00 0.0000000000000000e+00 0.0000000000000000e+00  2.7611556028662452e-07 -1.1977616593484232e+01 0.0000000000000000e+00  3.4675955396659417e-07 -1.2785947467629347e+01 0.0000000000000000e+00  3.4373084357771174e-07 -1.2108354651964845e+01 0.0000000000000000e+00  0.0000000000000000e+00 0.0000000000000000e+00 0.0000000000000000e+00  0.0000000000000000e+00 0.0000000000000000e+00 0.0000000000000000e+00  0.0000000000000000e+00 0.0000000000000000e+00 0.0000000000000000e+00  0.0000000000000000e+00 0.0000000000000000e+00 0.0000000000000000e+00  0.0000000000000000e+00 0.0000000000000000e+00 0.0000000000000000e+00  0.0000000000000000e+00 0.0000000000000000e+00 0.0000000000000000e+00  0.0000000000000000e+00 0.0000000000000000e+00 0.0000000000000000e+00  0.0000000000000000e+00 0.0000000000000000e+00 0.0000000000000000e+00  0.0000000000000000e+00 0.0000000000000000e+00 0.0000000000000000e+00  0.0000000000000000e+00 0.0000000000000000e+00 0.0000000000000000e+00  0.0000000000000000e+00 0.0000000000000000e+00 0.0000000000000000e+00  2.7918805560803232e-07 -1.1955550333010127e+01 0.0000000000000000e+00  3.4457182704649134e-07 -1.2766696064269983e+01 0.0000000000000000e+00  3.4104620451665738e-07 -1.2090623268742641e+01 0.0000000000000000e+00  0.0000000000000000e+00 0.0000000000000000e+00 0.0000000000000000e+00  0.0000000000000000e+00 0.0000000000000000e+00 0.0000000000000000e+00  -2.4667810471790414e-02 -1.2071558116205981e+01 0.0000000000000000e+00  -2.0915596413008750e-02 -1.2777233319298716e+01 0.0000000000000000e+00  -3.4851861599009729e-02 -1.2071076258584229e+01 0.0000000000000000e+00  9.2375826977252301e-06 5.3458812552573435e-04 0.0000000000000000e+00  -2.4770914398886828e-04 6.5341968671454832e-04 0.0000000000000000e+00  -1.7437785794613314e-04 4.1177631461536304e-04 0.0000000000000000e+00  -1.9176791094850757e-04 7.7814351445871670e-05 0.0000000000000000e+00  -9.8888277258048056e-05 -1.2587313345714560e-04 0.0000000000000000e+00  2.7107846855006161e-05 -1.3195464446407308e-04 0.0000000000000000e+00  1.5479473252320120e-04 1.3192817915535441e-05 0.0000000000000000e+00  2.1099504367786374e-04 2.3797993539376069e-04 0.0000000000000000e+00  2.1296913533870557e-04 5.5745948181268540e-04 0.0000000000000000e+00  1.5806282695370407e-04 6.7108455041706388e-04 0.0000000000000000e+00  1.2147522171966574e-04 8.9753331221459093e-04 0.0000000000000000e+00  -2.5784172973567967e-02 -1.2055002311556850e+01 0.0000000000000000e+00  -2.2221057596410111e-02 -1.2762015844468543e+01 0.0000000000000000e+00  -3.6849404548635889e-02 -1.2054929393996472e+01 0.0000000000000000e+00  0.0000000000000000e+00 0.0000000000000000e+00 0.0000000000000000e+00  0.0000000000000000e+00 0.0000000000000000e+00 0.0000000000000000e+00  -1.5510847457257431e-02 -1.2075171106306946e+01 0.0000000000000000e+00  -2.9071915648607713e-02 -1.2797117117787096e+01 0.0000000000000000e+00  -3.4090432805552254e-02 -1.2065831580054482e+01 0.0000000000000000e+00  9.1188940358668809e-04 1.6052612189320905e-03 0.0000000000000000e+00  1.4150575724964645e-04 7.9243803735923920e-04 0.0000000000000000e+00  -1.7380049110051694e-04 -6.7601007820434776e-05 0.0000000000000000e+00  -1.9756495451317979e-04 -4.2571810262782508e-04 0.0000000000000000e+00  3.2518511787870847e-05 -3.1907230932405600e-04 0.0000000000000000e+00  2.2287134096767410e-04 -9.6001269558127411e-05 0.0000000000000000e+00  3.0622995839685573e-04 3.7788578867486420e-05 0.0000000000000000e+00  1.2215222658390549e-04 4.5828045949066127e-04 0.0000000000000000e+00  1.7715717101868916e-05 9.7966434454272344e-04 0.0000000000000000e+00  -7.4763507463882699e-05 1.0465235231997302e-03 0.0000000000000000e+00  -2.0469363494617093e-04 9.2778715884514864e-04 0.0000000000000000e+00  -1.5984275760743787e-02 -1.2052398429975604e+01 0.0000000000000000e+00  -2.9535429176137787e-02 -1.2774243265001470e+01 0.0000000000000000e+00  -3.5188520197050162e-02 -1.2042061870486993e+01 0.0000000000000000e+00  0.0000000000000000e+00 0.0000000000000000e+00 0.0000000000000000e+00  0.0000000000000000e+00 0.0000000000000000e+00 0.0000000000000000e+00  -6.1743299475530726e-03 -1.2065163863612549e+01 0.0000000000000000e+00  -1.2342299091085442e-02 -1.2786379638085700e+01 0.0000000000000000e+00  -2.3858146019687908e-02 -1.2047828871711825e+01 0.0000000000000000e+00  1.4671235041671725e-03 1.2619867871101935e-03 0.0000000000000000e+00  3.1407413191994260e-04 -1.2250880637069416e-04 0.0000000000000000e+00  1.2879182810665335e-05 -5.8764144542148807e-04 0.0000000000000000e+00  4.8414282163391337e-04 3.2058653742245743e-04 0.0000000000000000e+00  3.9289605876046042e-04 6.2778354963021290e-04 0.0000000000000000e+00  1.4800612796430994e-04 4.3401534548255127e-05 0.0000000000000000e+00  -1.0440233628636091e-06 -1.0267673672750653e-04 0.0000000000000000e+00  2.3923696873508172e-04 2.1455229916747206e-04 0.0000000000000000e+00  1.0708961576625899e-04 7.4987133376807182e-04 0.0000000000000000e+00  -3.1489125325225280e-04 2.2861498729465726e-03 0.0000000000000000e+00  -3.0647776636731687e-04 3.4846141217644792e-03 0.0000000000000000e+00  -9.0510899588840416e-03 -1.2044276700262898e+01 0.0000000000000000e+00  -1.8541991862382590e-02 -1.2770458696391335e+01 0.0000000000000000e+00  -3.1152699570266278e-02 -1.2038674676315599e+01 0.0000000000000000e+00  0.0000000000000000e+00 0.0000000000000000e+00 0.0000000000000000e+00  0.0000000000000000e+00 0.0000000000000000e+00 0.0000000000000000e+00  -3.3091262718775694e-03 -1.2070786423888888e+01 0.0000000000000000e+00  -5.5802798608519978e-03 -1.2790281635534965e+01 0.0000000000000000e+00  -1.9752492444188752e-02 -1.2055417452633845e+01 0.0000000000000000e+00  5.0341096155959008e-03 5.1693853219417704e-03 0.0000000000000000e+00  4.7373058791666265e-03 1.4870578702964217e-03 0.0000000000000000e+00  1.4864384447483830e-03 2.3552855924241171e-03 0.0000000000000000e+00  1.8561456696313053e-03 3.2161237603766288e-03 0.0000000000000000e+00  6.2249987845169088e-05 1.2907245855783920e-03 0.0000000000000000e+00  -7.1182326961429356e-04 9.3092765847281687e-04 0.0000000000000000e+00  -1.8509627355873526e-03 2.4006520097645911e-03 0.0000000000000000e+00  -1.7096938211611228e-03 2.1271859365958742e-04 0.0000000000000000e+00  -5.5791446452106621e-03 2.3885535693948350e-03 0.0000000000000000e+00  -5.8698272666760547e-03 7.1913503383154538e-03 0.0000000000000000e+00  -4.5827497149637589e-03 8.7568418518368697e-03 0.0000000000000000e+00  -6.3182256524717036e-03 -1.2047433031976155e+01 0.0000000000000000e+00  -6.6877403855834412e-03 -1.2767709415834046e+01 0.0000000000000000e+00  -2.0974422004772949e-02 -1.2037824000894627e+01 0.0000000000000000e+00  0.0000000000000000e+00 0.0000000000000000e+00 0.0000000000000000e+00  0.0000000000000000e+00 0.0000000000000000e+00 0.0000000000000000e+00  -1.6669397092575933e-03 -1.2073190481239859e+01 0.0000000000000000e+00  4.1064708685384643e-03 -1.2789047256905310e+01 0.0000000000000000e+00  1.5873557347257372e-03 -1.2052311615299981e+01 0.0000000000000000e+00  2.5132634173372807e-02 2.5186908685643260e-03 0.0000000000000000e+00  1.8751447561875599e-02 -7.5228258808515984e-04 0.0000000000000000e+00  1.1795892941997217e-02 -3.6794702276611623e-03 0.0000000000000000e+00  2.1030848333396888e-03 7.1064144102096494e-03 0.0000000000000000e+00  5.9342099729260873e-04 3.1463700902622971e-03 0.0000000000000000e+00  -1.5956255057219643e-03 2.4045004385276499e-03 0.0000000000000000e+00  -3.5936191437661779e-03 2.4623012850632079e-03 0.0000000000000000e+00  -4.8850393699917021e-03 2.7167755730625165e-03 0.0000000000000000e+00  -1.5552216658526725e-02 2.2650077812157005e-03 0.0000000000000000e+00  -1.8017389910335160e-02 9.6917475831021695e-03 0.0000000000000000e+00  -2.0860646165856520e-02 1.7023001354153761e-02 0.0000000000000000e+00  -1.3703639187796809e-02 -1.2046306471491661e+01 0.0000000000000000e+00  -6.7151907803455549e-03 -1.2767849412895083e+01 0.0000000000000000e+00  -1.2374069847428329e-02 -1.2040326719707075e+01 0.0000000000000000e+00  0.0000000000000000e+00 0.0000000000000000e+00 0.0000000000000000e+00  0.0000000000000000e+00 0.0000000000000000e+00 0.0000000000000000e+00  1.3966991376734746e-03 -1.2083740908899692e+01 0.0000000000000000e+00  1.4280672379122273e-02 -1.2797809719670616e+01 0.0000000000000000e+00  1.8299867278648112e-02 -1.2060921232950223e+01 0.0000000000000000e+00  3.4266681619297933e-02 1.0771057117914831e-02 0.0000000000000000e+00  3.6777101671624408e-02 -7.6498462870395675e-04 0.0000000000000000e+00  4.2626735615067454e-02 -1.6578979354001665e-02 0.0000000000000000e+00  1.3801824765089468e-02 1.8860267865577200e-02 0.0000000000000000e+00  3.5869625939745193e-03 1.9739983883898044e-02 0.0000000000000000e+00  -3.6150671710184655e-03 2.1057921738097233e-02 0.0000000000000000e+00  -1.0275704179818240e-02 1.8572146206933617e-02 0.0000000000000000e+00  -1.8661126488503786e-02 1.1550952613184453e-02 0.0000000000000000e+00  -3.1180579902536417e-02 -1.8492984129994605e-03 0.0000000000000000e+00  -3.4728131938915212e-02 8.3280960048570715e-03 0.0000000000000000e+00  -3.8972308231424314e-02 1.6253912548216828e-02 0.0000000000000000e+00  -2.4086829942257425e-02 -1.2049219495512453e+01 0.0000000000000000e+00  -1.2133091074577577e-02 -1.2778482560648925e+01 0.0000000000000000e+00  -1.0083206433162477e-02 -1.2051601369019064e+01 0.0000000000000000e+00  0.0000000000000000e+00 0.0000000000000000e+00 0.0000000000000000e+00  0.0000000000000000e+00 0.0000000000000000e+00 0.0000000000000000e+00  5.8124549614781583e-03 -1.2106763100721173e+01 0.0000000000000000e+00  2.6101505461070623e-02 -1.2819554832050828e+01 0.0000000000000000e+00  3.8042082906349244e-02 -1.2084869742980107e+01 0.0000000000000000e+00  4.9534068131706743e-02 1.6753455480638543e-02 0.0000000000000000e+00  5.1793396396321793e-02 5.1092921807675239e-03 0.0000000000000000e+00  5.2971117851486511e-02 -3.8798072633550095e-03 0.0000000000000000e+00  4.4539248786919970e-02 4.4871582988948361e-02 0.0000000000000000e+00  2.0559834495090582e-02 4.9089792697918369e-02 0.0000000000000000e+00  -7.6038674336147984e-04 5.1318099285001750e-02 0.0000000000000000e+00  -2.0291636009052396e-02 4.9625280999864088e-02 0.0000000000000000e+00  -3.7744515870546898e-02 4.5811524590477250e-02 0.0000000000000000e+00  -5.1182950752119517e-02 -7.8479457064413415e-03 0.0000000000000000e+00  -5.3312375553826792e-02 4.1547492306173066e-03 0.0000000000000000e+00  -5.4482211239639401e-02 1.7027294742642741e-02 0.0000000000000000e+00  -4.4860731817777916e-02 -1.2075966020737738e+01 0.0000000000000000e+00  -1.9086221259060662e-02 -1.2802405528406283e+01 0.0000000000000000e+00  -1.1599896737850147e-02 -1.2077725453630423e+01 0.0000000000000000e+00  0.0000000000000000e+00 0.0000000000000000e+00 0.0000000000000000e+00  0.0000000000000000e+00 0.0000000000000000e+00 0.0000000000000000e+00  1.0661721695346434e-02 -1.2144027275658896e+01 0.0000000000000000e+00  3.7895277449797558e-02 -1.2856112839116614e+01 0.0000000000000000e+00  5.6442656895384587e-02 -1.2125527658224399e+01 0.0000000000000000e+00  6.8475704790340500e-02 1.8817911457789792e-02 0.0000000000000000e+00  7.0843943112276556e-02 8.8423934460908609e-03 0.0000000000000000e+00  7.1771989831791907e-02 -1.3012479594652264e-03 0.0000000000000000e+00  5.8369936075392856e-02 1.0026370815071285e-01 0.0000000000000000e+00  2.7894412483355044e-02 9.9256161898190087e-02 0.0000000000000000e+00  -9.2671479522547719e-04 1.0006787631569794e-01 0.0000000000000000e+00  -2.9107027495161465e-02 9.8470561587850725e-02 0.0000000000000000e+00  -5.9034948019540658e-02 9.6983395293636573e-02 0.0000000000000000e+00  -7.1032641637848143e-02 -8.7705373644372097e-03 0.0000000000000000e+00  -7.3152057188223082e-02 1.8156364122795322e-03 0.0000000000000000e+00  -7.3875871755301789e-02 1.1772100928831172e-02 0.0000000000000000e+00  -6.4660882135066766e-02 -1.2120628425778939e+01 0.0000000000000000e+00  -2.9920320467751390e-02 -1.2842676196966043e+01 0.0000000000000000e+00  -1.3230744891207557e-02 -1.2118419818473619e+01 0.0000000000000000e+00  0.0000000000000000e+00 0.0000000000000000e+00 0.0000000000000000e+00  0.0000000000000000e+00 0.0000000000000000e+00 0.0000000000000000e+00  1.4731861237536944e-02 -1.2193509161575465e+01 0.0000000000000000e+00  4.7189055336345265e-02 -1.2905076097490509e+01 0.0000000000000000e+00  6.9988705906604817e-02 -1.2179625457006354e+01 0.0000000000000000e+00  8.3468398476520475e-02 1.7042384284541228e-02 0.0000000000000000e+00  8.5469076963810287e-02 1.0659865710281314e-02 0.0000000000000000e+00  8.5009282415314164e-02 4.5980204516960100e-03 0.0000000000000000e+00  7.1345057995974279e-02 1.6412069164571552e-01 0.0000000000000000e+00  3.4085227665183779e-02 1.6139071669840147e-01 0.0000000000000000e+00  -1.3349456276053368e-03 1.6247228544278450e-01 0.0000000000000000e+00  -3.6337133245920451e-02 1.6195186762049726e-01 0.0000000000000000e+00  -7.3809510578114593e-02 1.6434576862263253e-01 0.0000000000000000e+00  -8.7120768643697527e-02 -6.3987001678312699e-03 0.0000000000000000e+00  -8.9042204369866304e-02 1.7635084826631069e-04 0.0000000000000000e+00  -8.8518780116059750e-02 6.4917025481804795e-03 0.0000000000000000e+00  -8.0751147620973796e-02 -1.2179010993801045e+01 0.0000000000000000e+00  -4.1298054153740806e-02 -1.2894821476803124e+01 0.0000000000000000e+00  -1.6657712682196336e-02 -1.2170396290136734e+01 0.0000000000000000e+00  0.0000000000000000e+00 0.0000000000000000e+00 0.0000000000000000e+00  0.0000000000000000e+00 0.0000000000000000e+00 0.0000000000000000e+00  1.7125537994336526e-02 -1.2250509846377446e+01 0.0000000000000000e+00  5.2146615600090089e-02 -1.2961490636116535e+01 0.0000000000000000e+00  7.6275342924164505e-02 -1.2241478297717794e+01 0.0000000000000000e+00  9.0640793609004011e-02 1.2860682403368994e-02 0.0000000000000000e+00  9.2184648536568936e-02 1.1591252386715687e-02 0.0000000000000000e+00  9.1050769872040721e-02 1.0574194052916541e-02 0.0000000000000000e+00  7.5940905790720561e-02 2.4181125460187827e-01 0.0000000000000000e+00  3.6413110017700479e-02 2.3420128811855526e-01 0.0000000000000000e+00  -1.8411459808727114e-03 2.3409140879624321e-01 0.0000000000000000e+00  -3.9804495228786749e-02 2.3467371803062959e-01 0.0000000000000000e+00  -8.1028524445039288e-02 2.4196157282680347e-01 0.0000000000000000e+00  -9.5224397577966455e-02 -1.7332760377158068e-03 0.0000000000000000e+00  -9.6669888564936274e-02 -2.6407941007995081e-04 0.0000000000000000e+00  -9.5395802161098872e-02 9.8451463684818847e-04 0.0000000000000000e+00  -8.8827971868884553e-02 -1.2245266672804062e+01 0.0000000000000000e+00  -4.9360707309911399e-02 -1.2954341909880366e+01 0.0000000000000000e+00  -2.0772781995944761e-02 -1.2229139477752614e+01 0.0000000000000000e+00  4.7872625405445711e-10 -3.8213102609873844e-10 0.0000000000000000e+00  0.0000000000000000e+00 0.0000000000000000e+00 0.0000000000000000e+00  1.7357597295142437e-02 -1.2308980725379669e+01 0.0000000000000000e+00  5.1824635521973361e-02 -1.3019259014254601e+01 0.0000000000000000e+00  7.4168284466801654e-02 -1.2304336183261974e+01 0.0000000000000000e+00  8.8217585306200275e-02 7.4469567517642943e-03 0.0000000000000000e+00  8.9242235854803981e-02 1.1595386854737750e-02 0.0000000000000000e+00  8.7647661728978546e-02 1.5932232432984493e-02 0.0000000000000000e+00  7.2486324602282798e-02 3.2091324994583476e-01 0.0000000000000000e+00  3.4798120462163754e-02 3.0855816198704678e-01 0.0000000000000000e+00  -2.2212993526899371e-03 3.0743720422335358e-01 0.0000000000000000e+00  -3.9098521404326590e-02 3.0915770118934455e-01 0.0000000000000000e+00  -7.9742484809620207e-02 3.2146742256987582e-01 0.0000000000000000e+00  -9.3518216224544995e-02 4.1164889140647871e-03 0.0000000000000000e+00  -9.4445922210585370e-02 1.0775173344541477e-04 0.0000000000000000e+00  -9.2745576822780493e-02 -4.0887524059090071e-03 0.0000000000000000e+00  -8.7565861571669304e-02 -1.2312331727036355e+01 0.0000000000000000e+00  -5.1798020005032634e-02 -1.3014970783873546e+01 0.0000000000000000e+00  -2.3682082074293880e-02 -1.2289097463033341e+01 0.0000000000000000e+00  0.0000000000000000e+00 0.0000000000000000e+00 0.0000000000000000e+00  0.0000000000000000e+00 0.0000000000000000e+00 0.0000000000000000e+00  1.5314955772772129e-02 -1.2362533304911745e+01 0.0000000000000000e+00  4.6120573808113720e-02 -1.3072061492997877e+01 0.0000000000000000e+00  6.3771408059052709e-02 -1.2361321810512017e+01 0.0000000000000000e+00  7.6069762222785567e-02 1.7118824008564828e-03 0.0000000000000000e+00  7.6523540533700363e-02 1.0864754433305044e-02 0.0000000000000000e+00  7.4744351963467376e-02 2.0159518157080076e-02 0.0000000000000000e+00  6.1049585504078172e-02 3.9372986435066248e-01 0.0000000000000000e+00  2.9328230395746585e-02 3.7684515264771518e-01 0.0000000000000000e+00  -2.5124677694171576e-03 3.7467259549850174e-01 0.0000000000000000e+00  -3.4307172232423758e-02 3.7735910417175944e-01 0.0000000000000000e+00  -7.0014555230330497e-02 3.9434917616960979e-01 0.0000000000000000e+00  -8.1898359042933480e-02 1.0187245187410052e-02 0.0000000000000000e+00  -8.2269673587446759e-02 1.1236223453856187e-03 0.0000000000000000e+00  -8.0398103715357924e-02 -8.0738193178569780e-03 0.0000000000000000e+00  -7.7135086864446450e-02 -1.2373074426773357e+01 0.0000000000000000e+00  -4.7970873489548496e-02 -1.3070163915929296e+01 0.0000000000000000e+00  -2.4157504795654275e-02 -1.2344050380559647e+01 0.0000000000000000e+00  0.0000000000000000e+00 0.0000000000000000e+00 0.0000000000000000e+00  0.0000000000000000e+00 0.0000000000000000e+00 0.0000000000000000e+00  1.1201786272699750e-02 -1.2405287290522024e+01 0.0000000000000000e+00  3.5634866774767966e-02 -1.3114128509059684e+01 0.0000000000000000e+00  4.6228164208782667e-02 -1.2406227326631813e+01 0.0000000000000000e+00  5.5414674254418303e-02 -3.5763202906166519e-03 0.0000000000000000e+00  5.5292189936711526e-02 9.5798549972654322e-03 0.0000000000000000e+00  5.3552573925376677e-02 2.2829579604805694e-02 0.0000000000000000e+00  4.2877374235277016e-02 4.5222476690403579e-01 0.0000000000000000e+00  2.0559644731800743e-02 4.3164938313904733e-01 0.0000000000000000e+00  -2.7112832737180145e-03 4.2857592849143800e-01 0.0000000000000000e+00  -2.5992482447836977e-02 4.3198733145875118e-01 0.0000000000000000e+00  -5.3032088775058273e-02 4.5280342525047701e-01 0.0000000000000000e+00  -6.1595648641560710e-02 1.5706879118866528e-02 0.0000000000000000e+00  -6.1407213683345431e-02 2.5987201679597656e-03 0.0000000000000000e+00  -5.9595852707428759e-02 -1.0595380499491462e-02 0.0000000000000000e+00  -5.8815684712916379e-02 -1.2421144567371201e+01 0.0000000000000000e+00  -3.8379001603345377e-02 -1.3114110104926239e+01 0.0000000000000000e+00  -2.1817545389894149e-02 -1.2388165000785458e+01 0.0000000000000000e+00  0.0000000000000000e+00 0.0000000000000000e+00 0.0000000000000000e+00  0.0000000000000000e+00 0.0000000000000000e+00 0.0000000000000000e+00  5.4612866775856301e-03 -1.2432551762481344e+01 0.0000000000000000e+00  2.1507571332649147e-02 -1.3140876586375779e+01 0.0000000000000000e+00  2.3466118693465255e-02 -1.2434179259106040e+01 0.0000000000000000e+00  2.8490070014006913e-02 -7.8199784499402968e-03 0.0000000000000000e+00  2.7822989001402541e-02 7.9152646695772634e-03 0.0000000000000000e+00  2.6308247438156629e-02 2.3697622327680794e-02 0.0000000000000000e+00  1.9913360272133446e-02 4.9012287140077077e-01 0.0000000000000000e+00  9.4327714968960742e-03 4.6710325553456566e-01 0.0000000000000000e+00  -2.8199447396094709e-03 4.6338760623137060e-01 0.0000000000000000e+00  -1.5099707466994643e-02 4.6721270232755202e-01 0.0000000000000000e+00  -3.0704724218659486e-02 4.9058320613153461e-01 0.0000000000000000e+00  -3.4858931893411452e-02 2.0076206943175814e-02 0.0000000000000000e+00  -3.4142734091856294e-02 4.3519968887828333e-03 0.0000000000000000e+00  -3.2576384843420417e-02 -1.1409978884887380e-0