<?xml version="1.0"?>
<VTKFile type="UnstructuredGrid"  version="0.1"  >
<UnstructuredGrid>
<Piece  NumberOfPoints="589" NumberOfCells="1080">
<Points>
<DataArray  type="Float64"  NumberOfComponents="3"  format="ascii">-9 0 0  -8 0 0  -7 0 0  -6 0 0  -5 0 0  -4 0 0  -3 0 0  -2 0 0  -1 0 0  0 0 0  1 0 0  2 0 0  3 0 0  4 0 0  5 0 0  6 0 0  7 0 0  8 0 0  9 0 0  -9 2 0  -8.000006196894065 1.999990160022591 0  -7.000013023794133 1.999981573940251 0  -6.000021987042413 1.999975265159701 0  -5.000036549725537 1.999971698058882 0  -4.000021144362726 1.99997869162509 0  -3.000005320840717 1.999985557027403 0  -1.999997701824359 1.999992096998107 0  -0.9999966468627721 1.999997260466279 0  3.248615455621215e-07 1.999999483635717 0  0.9999970678498322 1.999997791689319 0  1.999997350922724 1.999992546705044 0  3.000003728467231 1.999986094809878 0  4.000017051510361 1.999979088711869 0  5.000036509042597 1.999975876524477 0  6.000022244761523 1.999977037532318 0  7.000013321616479 1.999982348595537 0  8.000006384692874 1.999990461140783 0  9 2 0  -9.000000000004983 4 0  -8.000009873653537 3.99997530502714 0  -7.000017502244821 3.999954039087438 0  -6.000021576291871 3.999939563828108 0  -5.000022382075865 3.999935088807142 0  -3.99999959714445 3.999938254768334 0  -2.99998437434809 3.999957901387961 0  -1.999980592739055 3.99998357155229 0  -0.9999867428092885 4.000004225095652 0  1.718182672870756e-06 4.000012433560439 0  0.9999899859127556 4.000005567095917 0  1.999983201971493 3.999987391085062 0  2.99998653390469 3.999962769799785 0  4.000001583395556 3.999937795871455 0  5.000024584099038 3.999928728073634 0  6.000023124824911 3.999937475279576 0  7.000018698156499 3.999953491947962 0  8.000010560180803 3.999975217729741 0  9 4 0  -9 6 0  -8.00002252995152 5.999946736740667 0  -7.000036198822925 5.999899344158242 0  -6.000034238544479 5.999863864126677 0  -5.000014691399438 5.99984610810231 0  -3.999969751160563 5.999875205603984 0  -2.999949353123058 5.999936449954578 0  -1.999957498480395 6.000000760344806 0  -0.9999778141372333 6.000036589640386 0  1.501896222277028e-06 6.000043659146973 0  0.9999827819864671 6.000031682501341 0  1.999968453219859 5.999998752139301 0  2.999963097424886 5.999943121479222 0  3.999973993085114 5.99988523482503 0  5.000013118628091 5.999855992615389 0  6.000035874435745 5.999868837755412 0  7.000038919073572 5.999901801832263 0  8.000024423241493 5.999947751211186 0  9 6 0  -9 8 0  -8.000070622435208 7.999894699463034 0  -7.00011740689082 7.999797013344522 0  -6.000117245058172 7.999717282663328 0  -5.00005031589095 7.999672547754341 0  -3.999963198669439 7.999807847653184 0  -2.999978755827007 7.999967080660277 0  -2.000011092796294 8.000045039564071 0  -1.000013825852439 8.000054367102235 0  5.498229134696515e-06 8.000057162555068 0  1.000019711939146 8.000065074057858 0  2.000013192392264 8.000031591473014 0  2.999974405920333 7.999974709601331 0  3.999961110562541 7.999834425906242 0  5.000048120120075 7.999676176290547 0  6.000127458250926 7.999719744892191 0  7.000129289638513 7.999798186214989 0  8.000077985362012 7.999895098976022 0  9 8 0  -9 10 0  -8.000213999976754 9.999812258441969 0  -7.000386327541428 9.999622944174231 0  -6.00046725134867 9.999430856260407 0  -5.000387478943364 9.999235675169551 0  -4.00024950643947 9.999672257619064 0  -3.000271153915727 10.0000479695338 0  -2.000214913772748 9.99998461892085 0  -1.00009379708597 9.999964290183801 0  -4.140424229744533e-06 9.999959309653102 0  1.000085134244017 9.999959538254663 0  2.000204551532708 9.999956572850452 0  3.000308863122838 10.00009401157133 0  4.000294849861475 9.999728022507643 0  5.000455419456067 9.999245253977515 0  6.000528919620479 9.999431277064668 0  7.000432108068455 9.999620749778412 0  8.00023820954631 9.999810534920154 0  9 10 0  -9 12 0  -8.000523757617513 11.99973622324197 0  -7.001020357036838 11.99946016363135 0  -6.001459062457663 11.99915714093393 0  -5.001801686138708 11.99880670410928 0  -4.001730962032255 11.9996020103471 0  -3.001793475491838 12.00038923395892 0  -2.00121730939151 12.00029641142329 0  -1.000578379108009 12.00024738872466 0  8.369584901430643e-05 12.00024011699758 0  1.000750957687258 12.00027645426468 0  2.001407836712152 12.00036632701654 0  3.002023410230593 12.00053435965124 0  4.001952959246764 11.99965389659941 0  5.002000746329445 11.99876599932658 0  6.001610885645734 11.99912927988254 0  7.001122902251411 11.99944222886118 0  8.000575449790402 11.99972735355353 0  9 12 0  -9 14 0  -8.0009415101398 13.99970944923551 0  -7.001884940212546 13.99940546020084 0  -6.00283345014001 13.99907341061553 0  -5.003793403842704 13.99869635535685 0  -4.003803134174492 13.99962449311429 0  -3.003807623689938 14.00056422892957 0  -2.002471968697889 14.00043324427115 0  -1.001156047300097 14.00036369609417 0  0.0001509823286985949 14.00034668789272 0  1.001459320279268 14.00037947831395 0  2.002778217817176 14.00046380321152 0  3.004114597076268 14.00060418336438 0  4.004123723149918 13.99961936289854 0  5.004131667851004 13.99864035063963 0  6.003083708705267 13.99902914485857 0  7.002050614004703 13.99937532638581 0  8.001024080310012 13.99969426166137 0  9 14 0  -9 16 0  -8.00135071403853 15.99973651454232 0  -7.002727770580152 15.99946318208803 0  -6.004159752259963 15.99916997904378 0  -5.005679825455991 15.99884668683191 0  -4.005734234080143 15.99963534057484 0  -3.005681579377236 16.00041962374949 0  -2.00364996854226 16.00032504386106 0  -1.001699121189247 16.00027042014413 0  0.0002131221337156433 16.00025458840287 0  1.002126578674125 16.00027688387759 0  2.004081017209211 16.0003375801736 0  3.00611868718374 16.00043768781984 0  4.006176318605039 15.99959373044304 0  5.006126583254831 15.99874896375678 0  6.004494300477676 15.99909983206282 0  7.002950396457069 15.99941766882132 0  8.001461888386183 15.99971409521426 0  9 16 0  -9 18 0  -8.001653631178748 17.99980299051002 0  -7.003349257080187 17.99960047802623 0  -6.005131039540281 17.99938705292994 0  -5.007047460240257 17.99915751588028 0  -4.007129908036245 17.9996370977794 0  -3.007049266091947 18.00011586527788 0  -2.004507840954441 18.00005761164519 0  -1.002089131111289 18.00002259341628 0  0.0002704015778758498 18.00001059188335 0  1.002631229217617 18.00002128694177 0  2.005053741080721 18.00005429023264 0  3.007601196736147 18.00010902658871 0  4.007686126298338 17.9995744149749 0  5.007605775377785 17.99904112619098 0  6.00554819115586 17.9993028878197 0  7.003626587936446 17.99954580242647 0  8.001792065469822 17.9997760712329 0  9 18 0  -9 20 0  -8.001787720888444 19.99989146508891 0  -7.003624431173286 19.99978144878688 0  -6.005560992055889 19.99966862856934 0  -5.007652011273484 19.99955199491457 0  -4.007746228743797 19.99963615698621 0  -3.00765209871494 19.9997194309434 0  -2.004878188823501 19.99969768000593 0  -1.002243997937626 19.99968315877517 0  0.0003224734166733114 19.99967626605832 0  1.002890640626991 19.99967690123496 0  2.00552991314069 19.99968448229758 0  3.008312285718979 19.99969790114563 0  4.008408758753791 19.9995646011859 0  5.008314058146499 19.99943216883333 0  6.006054865336445 19.99958140376879 0  7.003952422497174 19.99972455500358 0  8.001951341932903 19.99986339436604 0  8.999999999982878 19.99999999999612 0  -9 22 0  -8.001725062933646 21.99998585121419 0  -7.003498516434387 21.99997363554202 0  -6.005370281938037 21.99996546768838 0  -5.007393331130179 21.99996382995063 0  -4.00748556882406 21.99963145106291 0  -3.007393031556377 21.99929810138524 0  -2.004693067411341 21.99930898006757 0  -1.002129579621802 21.99931337518737 0  0.0003677841315495799 21.99931199504507 0  1.002867268827 21.99930488786889 0  2.005437138200267 21.99929145441816 0  3.008147804368393 21.9992704356885 0  4.008241302773978 21.99956128865785 0  5.008146160913219 21.9998525748347 0  6.005931368548644 21.99988424498678 0  7.00387089719904 21.99992053755506 0  8.001910749283821 21.99995961709418 0  9 22 0  -9 24 0  -8.001468019903394 24.00007250899453 0  -7.002977614467651 24.00014963603659 0  -6.004571541376154 24.00023618848655 0  -5.006294866154509 24.00033736488337 0  -4.006374206912859 23.99962321870337 0  -3.006295172722429 23.99890818167342 0  -2.003965369400752 23.99894608297471 0  -1.00175219451017 23.998966569965 0  0.0004047050661509684 23.99897050960629 0  1.002564086282806 23.99895804928023 0  2.00478473655396 23.99892862014546 0  3.007127102371414 23.99888093211145 0  4.007205956658382 23.99956286650607 0  5.00712188784168 24.00024498262362 0  6.005187553284622 24.00016857164751 0  7.003386269722551 24.00010535238961 0  8.001671739368378 24.00005060565396 0  9 24 0  -9 26 0  -8.001043732435527 26.00014071560983 0  -7.002117506976867 26.00028795141261 0  -6.003252204497828 26.00044842211337 0  -5.00448023027965 26.00062924262676 0  -4.004538322314007 25.99961198096264 0  -3.004481812151234 25.99859399421506 0  -2.002774378396122 25.99865253891839 0  -1.001151166861372 25.99868565177933 0  0.0004318416990893944 25.99869431945047 0  1.002017586408337 25.99867877489565 0  2.003649043195102 25.99863849852711 0  3.005370330093362 25.99857221603206 0  4.00542581480457 25.99956779940335 0  5.005361656143867 26.0005633705706 0  6.003908537469094 26.00040012318819 0  7.002552814870899 26.00025627822147 0  8.001260708739133 26.00012503651102 0  9 26 0  -9 28 0  -8.000498165749075 28.0001828643211 0  -7.001011690075353 28.000373345364 0  -6.001556403426256 28.00057925869319 0  -5.002148868584242 28.00080882328406 0  -4.002179994337678 27.99959873350092 0  -3.002151961098051 27.99838818949155 0  -2.001249665331154 27.99846039866329 0  -1.000390755996511 27.99850218799115 0  0.0004481718108423811 27.99851464757976 0  1.001289971699549 27.99849809088779 0  2.00215752958158 27.99845205552932 0  3.003074348117968 27.99837530181775 0  4.003100812037611 27.99957497078936 0  5.00306280465247 28.00077453738837 0  6.002236872405567 28.00055407750559 0  7.001462973641482 28.00035681106349 0  8.00072
[...]
<PointData  Vectors="f_44-0"> 
<DataArray  type="Float64"  Name="f_44-0"  NumberOfComponents="3" format="ascii">0.0000000000000000e+00 0.0000000000000000e+00 0.0000000000000000e+00  6.4509726061976828e-07 -1.1234290010806586e+01 0.0000000000000000e+00  5.4133991438499941e-07 -1.1438674484171433e+01 0.0000000000000000e+00  7.5552572056581772e-07 -1.0894870469248257e+01 0.0000000000000000e+00  0.0000000000000000e+00 0.0000000000000000e+00 0.0000000000000000e+00  0.0000000000000000e+00 0.0000000000000000e+00 0.0000000000000000e+00  0.0000000000000000e+00 0.0000000000000000e+00 0.0000000000000000e+00  0.0000000000000000e+00 0.0000000000000000e+00 0.0000000000000000e+00  0.0000000000000000e+00 0.0000000000000000e+00 0.0000000000000000e+00  0.0000000000000000e+00 0.0000000000000000e+00 0.0000000000000000e+00  0.0000000000000000e+00 0.0000000000000000e+00 0.0000000000000000e+00  0.0000000000000000e+00 0.0000000000000000e+00 0.0000000000000000e+00  0.0000000000000000e+00 0.0000000000000000e+00 0.0000000000000000e+00  0.0000000000000000e+00 0.0000000000000000e+00 0.0000000000000000e+00  0.0000000000000000e+00 0.0000000000000000e+00 0.0000000000000000e+00  6.5845255555140423e-07 -1.1244054149378060e+01 0.0000000000000000e+00  5.4886166402592652e-07 -1.1449246914502785e+01 0.0000000000000000e+00  7.6418073899247764e-07 -1.0905226021877942e+01 0.0000000000000000e+00  0.0000000000000000e+00 0.0000000000000000e+00 0.0000000000000000e+00  0.0000000000000000e+00 0.0000000000000000e+00 0.0000000000000000e+00  -5.9526465927745936e-02 -1.1028005473566479e+01 0.0000000000000000e+00  -1.1963050146152248e-02 -1.1459453718071437e+01 0.0000000000000000e+00  1.3613236073113580e-02 -1.1020728195960805e+01 0.0000000000000000e+00  1.8378449542936163e-03 -1.0139150984533311e-04 0.0000000000000000e+00  1.8014104417732981e-03 -6.4854031009943969e-04 0.0000000000000000e+00  9.4560963346074331e-04 -3.3547330683314698e-04 0.0000000000000000e+00  6.5637281554216365e-04 2.1803659621675585e-04 0.0000000000000000e+00  3.7838070598212009e-04 5.0314421373730766e-04 0.0000000000000000e+00  1.9119373795408479e-04 3.8635874478851374e-04 0.0000000000000000e+00  -2.1420731335317169e-06 2.3817040147657713e-05 0.0000000000000000e+00  -1.7880291036193098e-04 -4.1479275771912430e-04 0.0000000000000000e+00  -5.0615230992485808e-04 -1.0998705174266952e-03 0.0000000000000000e+00  -1.0330600869651744e-03 -1.2235090533737432e-03 0.0000000000000000e+00  -1.8829037912127891e-03 -2.2647230801659973e-03 0.0000000000000000e+00  -6.1210966963533349e-02 -1.1039323694473548e+01 0.0000000000000000e+00  -1.2491501853584698e-02 -1.1470896564501276e+01 0.0000000000000000e+00  1.2496539401589568e-02 -1.1032358852340945e+01 0.0000000000000000e+00  0.0000000000000000e+00 0.0000000000000000e+00 0.0000000000000000e+00  0.0000000000000000e+00 0.0000000000000000e+00 0.0000000000000000e+00  -4.6311220956901872e-03 -1.1020383275350827e+01 0.0000000000000000e+00  -2.6314914083203786e-02 -1.1433106207830985e+01 0.0000000000000000e+00  -2.8005200453689004e-03 -1.1023522048249133e+01 0.0000000000000000e+00  -9.7566256595922401e-04 -1.1492767000799140e-03 0.0000000000000000e+00  -2.8499412246966858e-05 7.3296481647378681e-04 0.0000000000000000e+00  7.3031033179088843e-05 2.0432900147098268e-03 0.0000000000000000e+00  -6.5046585014097373e-05 1.8603396069084832e-03 0.0000000000000000e+00  -4.1369829980831305e-04 7.0774462903498128e-04 0.0000000000000000e+00  -4.4103500563808277e-04 -2.4186020050698178e-04 0.0000000000000000e+00  -1.9639997355503370e-04 -3.0378805303839625e-04 0.0000000000000000e+00  5.6106965829582527e-04 -6.8600964028851319e-04 0.0000000000000000e+00  6.5238298686872017e-04 -1.0682823879647810e-03 0.0000000000000000e+00  1.8964785543377452e-04 -1.2119909368244754e-04 0.0000000000000000e+00  -4.4224157879751855e-04 8.2581869494365587e-04 0.0000000000000000e+00  -5.7649480214282504e-03 -1.1029629237698584e+01 0.0000000000000000e+00  -2.7429674765207482e-02 -1.1440948797831204e+01 0.0000000000000000e+00  -4.7191912457332751e-03 -1.1031228307358989e+01 0.0000000000000000e+00  0.0000000000000000e+00 0.0000000000000000e+00 0.0000000000000000e+00  0.0000000000000000e+00 0.0000000000000000e+00 0.0000000000000000e+00  7.7607862569919282e-03 -1.1020144257597723e+01 0.0000000000000000e+00  -5.0127242698936088e-03 -1.1417826583095206e+01 0.0000000000000000e+00  9.4159981580271151e-04 -1.1005350077554017e+01 0.0000000000000000e+00  -2.6378735653646269e-03 3.4651735511492545e-03 0.0000000000000000e+00  -1.7162649064293837e-03 5.6904188428107969e-03 0.0000000000000000e+00  -1.8411039664051943e-03 4.2581306854491408e-03 0.0000000000000000e+00  -2.6499998636738348e-03 -7.0918833937495915e-04 0.0000000000000000e+00  -1.5531827032672218e-03 -3.0361167770703063e-03 0.0000000000000000e+00  -9.2029322263094082e-05 -1.7960861882499999e-03 0.0000000000000000e+00  1.0740757561324486e-03 -9.4924284388523599e-04 0.0000000000000000e+00  1.0310064083565843e-03 -4.2534745056929126e-04 0.0000000000000000e+00  1.6166517114187253e-03 5.5513658897103472e-04 0.0000000000000000e+00  2.1982301081512456e-03 -1.0876247166836937e-03 0.0000000000000000e+00  3.5366686071412176e-04 -3.1782189987697934e-03 0.0000000000000000e+00  8.3575980820996907e-03 -1.1028490335734292e+01 0.0000000000000000e+00  -8.5762791019781438e-03 -1.1430348606909298e+01 0.0000000000000000e+00  -4.7120313179642836e-03 -1.1022677591885254e+01 0.0000000000000000e+00  0.0000000000000000e+00 0.0000000000000000e+00 0.0000000000000000e+00  0.0000000000000000e+00 0.0000000000000000e+00 0.0000000000000000e+00  9.7613480202156586e-03 -1.1026427113807625e+01 0.0000000000000000e+00  1.6091196118259345e-03 -1.1429219175610248e+01 0.0000000000000000e+00  4.2136839892505367e-03 -1.1026986332607047e+01 0.0000000000000000e+00  -1.0428091865459994e-02 1.4110239730391169e-03 0.0000000000000000e+00  -1.3125713068205442e-02 4.5821132823431546e-03 0.0000000000000000e+00  -4.5184427387328883e-03 -4.3451540817637307e-03 0.0000000000000000e+00  -3.8664529133588840e-03 -9.7673514378534953e-03 0.0000000000000000e+00  7.4568014329409553e-04 -5.6101603900800311e-03 0.0000000000000000e+00  1.9727009205195421e-03 -4.9219297749807456e-03 0.0000000000000000e+00  4.5126889429996731e-03 -9.4913964157655999e-03 0.0000000000000000e+00  4.2471516575736772e-03 -1.7880670255124157e-03 0.0000000000000000e+00  1.6662191603713652e-02 -5.3551995609938206e-03 0.0000000000000000e+00  1.8109554729182169e-02 -1.2536325106274254e-02 0.0000000000000000e+00  1.0563520527835621e-02 -9.8237564451835735e-03 0.0000000000000000e+00  7.4296785490501269e-03 -1.1030064411225460e+01 0.0000000000000000e+00  1.0388802284445958e-03 -1.1427240096423873e+01 0.0000000000000000e+00  1.5518208183822148e-03 -1.1018874349918645e+01 0.0000000000000000e+00  0.0000000000000000e+00 0.0000000000000000e+00 0.0000000000000000e+00  0.0000000000000000e+00 0.0000000000000000e+00 0.0000000000000000e+00  9.8912751950831213e-03 -1.1024547396108016e+01 0.0000000000000000e+00  2.9538428670889487e-03 -1.1420847233788811e+01 0.0000000000000000e+00  7.1465018024983919e-03 -1.1005316864730062e+01 0.0000000000000000e+00  -4.4621527070057780e-02 2.5973108011003977e-02 0.0000000000000000e+00  -3.5035484045658136e-02 1.5674408965762852e-02 0.0000000000000000e+00  -1.7492748006548313e-02 6.9260293823434505e-03 0.0000000000000000e+00  3.7141205360971151e-03 -1.6758937128134838e-02 0.0000000000000000e+00  2.6876719724005581e-03 -6.3219410645094839e-03 0.0000000000000000e+00  4.5606342811280636e-03 -4.4050336840690211e-03 0.0000000000000000e+00  6.1792341043426409e-03 -4.7914523164982294e-03 0.0000000000000000e+00  4.3203341627320651e-03 -5.3420213435616632e-03 0.0000000000000000e+00  3.0607744534808787e-02 -1.0543511533685702e-02 0.0000000000000000e+00  3.8250430606725595e-02 -1.5214196368654696e-02 0.0000000000000000e+00  3.8138816196626013e-02 -1.3769008223365530e-02 0.0000000000000000e+00  1.2196198705375399e-02 -1.1020960383250650e+01 0.0000000000000000e+00  7.6698922845274613e-04 -1.1423231342326616e+01 0.0000000000000000e+00  4.0167133471867202e-03 -1.1017870614518133e+01 0.0000000000000000e+00  0.0000000000000000e+00 0.0000000000000000e+00 0.0000000000000000e+00  0.0000000000000000e+00 0.0000000000000000e+00 0.0000000000000000e+00  1.2968973795179591e-02 -1.1028735450812576e+01 0.0000000000000000e+00  1.0650664461294120e-02 -1.1423433605910741e+01 0.0000000000000000e+00  1.7479783838391764e-02 -1.1010025538011673e+01 0.0000000000000000e+00  -6.9042585103913246e-03 2.3365727007262992e-02 0.0000000000000000e+00  -1.6197194105176935e-02 1.8201087116699828e-02 0.0000000000000000e+00  -2.7927948587772519e-02 2.3899434965676088e-02 0.0000000000000000e+00  -1.1126057458572987e-02 -1.6702614011325004e-02 0.0000000000000000e+00  -3.8888283888437376e-03 -1.4409871239000617e-02 0.0000000000000000e+00  7.9101757403197146e-04 -1.1253533878094793e-02 0.0000000000000000e+00  2.5021562251249722e-03 -1.3329052834972255e-02 0.0000000000000000e+00  -4.4265018736563055e-03 -2.2450725529577362e-02 0.0000000000000000e+00  -7.1780724807244984e-04 -1.9596800543387912e-02 0.0000000000000000e+00  1.1931168780602977e-02 -8.5159477645893079e-03 0.0000000000000000e+00  2.1403425059067345e-02 8.9436364654010298e-03 0.0000000000000000e+00  1.1269377877951250e-02 -1.1024057710028487e+01 0.0000000000000000e+00  -4.8923495392751227e-03 -1.1430447108018434e+01 0.0000000000000000e+00  2.1443430659576577e-03 -1.1024810557654217e+01 0.0000000000000000e+00  0.0000000000000000e+00 0.0000000000000000e+00 0.0000000000000000e+00  0.0000000000000000e+00 0.0000000000000000e+00 0.0000000000000000e+00  1.7038495782778666e-02 -1.1042334980073328e+01 0.0000000000000000e+00  1.9970049163901972e-02 -1.1436271120588014e+01 0.0000000000000000e+00  3.1455347062026157e-02 -1.1022946862555569e+01 0.0000000000000000e+00  3.9714832571607392e-02 1.2921201238614202e-02 0.0000000000000000e+00  3.4384662435932349e-02 2.4982785941105169e-03 0.0000000000000000e+00  3.1487572729448673e-02 -1.4926800206962729e-02 0.0000000000000000e+00  2.7698741424714457e-02 -1.0511412376332812e-02 0.0000000000000000e+00  1.3850400187562933e-02 -4.9084592534619940e-03 0.0000000000000000e+00  2.4376520576814028e-03 -2.0377809378030660e-03 0.0000000000000000e+00  -7.4936768790220109e-03 -3.0802621388919781e-03 0.0000000000000000e+00  -1.7595639097109216e-02 -6.8887862787407527e-03 0.0000000000000000e+00  -3.8598505233686478e-02 -6.0683775454294627e-03 0.0000000000000000e+00  -3.3312984042793460e-02 4.3544333374346102e-03 0.0000000000000000e+00  -3.0387749671670693e-02 1.2024261352013701e-02 0.0000000000000000e+00  -1.2805888329861312e-02 -1.1043451691041769e+01 0.0000000000000000e+00  -1.0433615944515438e-02 -1.1448152287530560e+01 0.0000000000000000e+00  -1.0341850850563389e-03 -1.1042534346262304e+01 0.0000000000000000e+00  0.0000000000000000e+00 0.0000000000000000e+00 0.0000000000000000e+00  0.0000000000000000e+00 0.0000000000000000e+00 0.0000000000000000e+00  2.0773574484727247e-02 -1.1065413392617437e+01 0.0000000000000000e+00  2.8259241174163698e-02 -1.1459338804255822e+01 0.0000000000000000e+00  4.4296801164017560e-02 -1.1048114893185193e+01 0.0000000000000000e+00  7.2882906235075512e-02 1.3217745554377973e-03 0.0000000000000000e+00  6.9176582274002765e-02 -7.4098844139040883e-03 0.0000000000000000e+00  6.4603358672255265e-02 -1.5567478626781176e-02 0.0000000000000000e+00  3.7886679185766874e-02 2.4313626649266538e-02 0.0000000000000000e+00  1.9133038365501728e-02 2.3127099355508433e-02 0.0000000000000000e+00  2.6650074661970116e-03 2.3727141100089940e-02 0.0000000000000000e+00  -1.3359241871950020e-02 2.2713634672521989e-02 0.0000000000000000e+00  -3.3876344483808322e-02 2.0382506279439886e-02 0.0000000000000000e+00  -7.2715268491766780e-02 4.4564104365348890e-03 0.0000000000000000e+00  -6.9385748591206192e-02 1.2143040161241002e-02 0.0000000000000000e+00  -6.4887255525775137e-02 2.1544145343961513e-02 0.0000000000000000e+00  -3.4431767891800177e-02 -1.1074698983283970e+01 0.0000000000000000e+00  -2.0521919239355958e-02 -1.1475546447456273e+01 0.0000000000000000e+00  -3.7998972870671539e-03 -1.1069109434872267e+01 0.0000000000000000e+00  0.0000000000000000e+00 0.0000000000000000e+00 0.0000000000000000e+00  0.0000000000000000e+00 0.0000000000000000e+00 0.0000000000000000e+00  2.3213364811433029e-02 -1.1095274182803548e+01 0.0000000000000000e+00  3.3519608945656490e-02 -1.1489521592951549e+01 0.0000000000000000e+00  5.2258959608940676e-02 -1.1080931804674616e+01 0.0000000000000000e+00  9.4061096672918607e-02 -7.3688181355740278e-03 0.0000000000000000e+00  9.2475897085321598e-02 -1.2138263205867441e-02 0.0000000000000000e+00  9.0223822899392639e-02 -1.7700254389003325e-02 0.0000000000000000e+00  4.8012074716860191e-02 5.8349075611717593e-02 0.0000000000000000e+00  2.3037815516067872e-02 5.8180487142139206e-02 0.0000000000000000e+00  2.1634402191618987e-03 5.8933828776132118e-02 0.0000000000000000e+00  -1.8555578225789869e-02 5.8482364733894801e-02 0.0000000000000000e+00  -4.5063261295639034e-02 5.7541056829938035e-02 0.0000000000000000e+00  -9.3525892261285840e-02 1.3344916343118707e-02 0.0000000000000000e+00  -9.1817612144829419e-02 1.7973153652911730e-02 0.0000000000000000e+00  -8.9354818875593198e-02 2.3226987901879114e-02 0.0000000000000000e+00  -4.8290490203451254e-02 -1.1111318193478180e+01 0.0000000000000000e+00  -2.8253423436004840e-02 -1.1507455083764018e+01 0.0000000000000000e+00  -6.4309307421817324e-03 -1.1100262798607934e+01 0.0000000000000000e+00  0.0000000000000000e+00 0.0000000000000000e+00 0.0000000000000000e+00  0.0000000000000000e+00 0.0000000000000000e+00 0.0000000000000000e+00  2.3940823299888329e-02 -1.1128047990381884e+01 0.0000000000000000e+00  3.4993651203235505e-02 -1.1522734457104093e+01 0.0000000000000000e+00  5.4477813564400041e-02 -1.1116835906361407e+01 0.0000000000000000e+00  1.0265544288880425e-01 -1.3417960400521197e-02 0.0000000000000000e+00  1.0275035512411232e-01 -1.4420276525344855e-02 0.0000000000000000e+00  1.0169977316871447e-01 -1.6052933796459824e-02 0.0000000000000000e+00  5.1410333702195034e-02 1.0163364593803001e-01 0.0000000000000000e+00  2.4306696803131460e-02 9.9560131672967955e-02 0.0000000000000000e+00  1.4593556408483994e-03 9.9781077395354148e-02 0.0000000000000000e+00  -2.1177954079881423e-02 9.9988449670837629e-02 0.0000000000000000e+00  -5.0199388958596283e-02 1.0093650691046005e-01 0.0000000000000000e+00  -1.0153241985819861e-01 1.9593753553636725e-02 0.0000000000000000e+00  -1.0156878442546552e-01 2.0212759131527317e-02 0.0000000000000000e+00  -1.0053487316152535e-01 2.1392807152371584e-02 0.0000000000000000e+00  -5.4033580224228800e-02 -1.1149225568168470e+01 0.0000000000000000e+00  -3.2123655908908165e-02 -1.1540957159529071e+01 0.0000000000000000e+00  -8.0244363653313219e-03 -1.1132553262198330e+01 0.0000000000000000e+00  1.8962497556048468e-10 -4.4497788821363141e-10 0.0000000000000000e+00  0.0000000000000000e+00 0.0000000000000000e+00 0.0000000000000000e+00  2.2910546315696220e-02 -1.1159724958008841e+01 0.0000000000000000e+00  3.2689677183370389e-02 -1.1554935863564841e+01 0.0000000000000000e+00  5.1062606393291639e-02 -1.1151575808750529e+01 0.0000000000000000e+00  9.8942392803268053e-02 -1.6963748903693010e-02 0.0000000000000000e+00  1.0030969667869186e-01 -1.4102461933141904e-02 0.0000000000000000e+00  1.0055007045104268e-01 -1.1717646411082260e-02 0.0000000000000000e+00  4.9207126893887766e-02 1.4571868498492210e-01 0.0000000000000000e+00  2.3073643255105025e-02 1.4209901238855510e-01 0.0000000000000000e+00  8.9085011310105109e-04 1.4182067021901854e-01 0.0000000000000000e+00  -2.1090879807821022e-02 1.4267314789966698e-01 0.0000000000000000e+00  -4.9408843505245124e-02 1.4545307688970993e-01 0.0000000000000000e+00  -9.7267266415434997e-02 2.3161464611762338e-02 0.0000000000000000e+00  -9.8582301661540472e-02 1.9940749245718301e-02 0.0000000000000000e+00  -9.8775636971212791e-02 1.7223889141941041e-02 0.0000000000000000e+00  -5.1167835354504844e-02 -1.1183585720767137e+01 0.0000000000000000e+00  -3.1292494810212526e-02 -1.1571879987535732e+01 0.0000000000000000e+00  -7.8673202819003751e-03 -1.1162528166233857e+01 0.0000000000000000e+00  0.0000000000000000e+00 0.0000000000000000e+00 0.0000000000000000e+00  0.0000000000000000e+00 0.0000000000000000e+00 0.0000000000000000e+00  2.0302952028974291e-02 -1.1186648997549904e+01 0.0000000000000000e+00  2.7050304499199884e-02 -1.1582450572787893e+01 0.0000000000000000e+00  4.2696209258735539e-02 -1.1181257816976951e+01 0.0000000000000000e+00  8.4254973202209371e-02 -1.7990904507224122e-02 0.0000000000000000e+00  8.6568870367872044e-02 -1.1689586434785309e-02 0.0000000000000000e+00  8.7887526690504855e-02 -5.7527870924579411e-03 0.0000000000000000e+00  4.1763066747656175e-02 1.8627326938766647e-01 0.0000000000000000e+00  1.9597398809105201e-02 1.8118118221804916e-01 0.0000000000000000e+00  4.6760966881418889e-04 1.8038944489477932e-01 0.0000000000000000e+00  -1.8432715083246710e-02 1.8175098744196289e-01 0.0000000000000000e+00  -4.3018748690009288e-02 1.8620919968915572e-01 0.0000000000000000e+00  -8.2082831320047248e-02 2.4188847564470629e-02 0.0000000000000000e+00  -8.4321600567662622e-02 1.7585178444491763e-02 0.0000000000000000e+00  -8.5592223449408145e-02 1.1356477505294124e-02 0.0000000000000000e+00  -4.0888097660739066e-02 -1.1210710394725176e+01 0.0000000000000000e+00  -2.5995539849869811e-02 -1.1596646729641284e+01 0.0000000000000000e+00  -5.7899181588830038e-03 -1.1186796278607945e+01 0.0000000000000000e+00  0.0000000000000000e+00 0.0000000000000000e+00 0.0000000000000000e+00  0.0000000000000000e+00 0.0000000000000000e+00 0.0000000000000000e+00  1.6458695570077089e-02 -1.1205867899407396e+01 0.0000000000000000e+00  1.8831532168829955e-02 -1.1602294069107584e+01 0.0000000000000000e+00  3.0517545806749653e-02 -1.1202708249511693e+01 0.0000000000000000e+00  6.0715303192518590e-02 -1.6669360807613290e-02 0.0000000000000000e+00  6.3636154349094018e-02 -7.6834903133325321e-03 0.0000000000000000e+00  6.5819379970001229e-02 1.0595749285094082e-03 0.0000000000000000e+00  2.9994189930491001e-02 2.1884140150986869e-01 0.0000000000000000e+00  1.4226940576134947e-02 2.1259600924202821e-01 0.0000000000000000e+00  1.8345040994344563e-04 2.1133086971437870e-01 0.0000000000000000e+00  -1.3603441900093306e-02 2.1303505443839668e-01 0.0000000000000000e+00  -3.1957971221236302e-02 2.1887052191804257e-01 0.0000000000000000e+00  -5.8142411709815184e-02 2.2861821800509871e-02 0.0000000000000000e+00  -6.0964063738355022e-02 1.3652169644034576e-02 0.0000000000000000e+00  -6.3083159751199630e-02 4.6994599704221407e-03 0.0000000000000000e+00  -2.4905516457916350e-02 -1.1227785312290163e+01 0.0000000000000000e+00  -1.7135551380493719e-02 -1.1612570151691939e+01 0.0000000000000000e+00  -2.0435889245280594e-03 -1.1202678410764937e+01 0.0000000000000000e+00  0.0000000000000000e+00 0.0000000000000000e+00 0.0000000000000000e+00  0.0000000000000000e+00 0.0000000000000000e+00 0.0000000000000000e+00  1.1827873601375870e-02 -1.1215387664412434e+01 0.0000000000000000e+00  9.0018095360915266e-03 -1.1612424944222338e+01 0.0000000000000000e+00  1.5974054836709516e-02 -1.1213748719876488e+01 0.0000000000000000e+00  3.1022244664547952e-02 -1.3279541217952315e-02 0.0000000000000000e+00  3.4221755564358199e-02 -2.5966279048766534e-03 0.0000000000000000e+00  3.7023257313194904e-02 7.9642635498721904e-03 0.0000000000000000e+00  1.5184308078121959e-02 2.3992697824566361e-01 0.0000000000000000e+00  7.5188571988758597e-03 2.3298609392016217e-01 0.0000000000000000e+00  2.1711181069492753e-05 2.3135351802596463e-01 0.0000000000000000e+00  -7.1951820123420992e-03 2.3321266698566714e-01 0.0000000000000000e+00  -1.7518684543932458e-02 2.4000148228867704e-01 0.0000000000000000e+00  -2.8178862696105193e-02 1.9470858935885033e-02 0.0000000000000000e+00  -3.1258357569766637e-02 8.6639709109007680e-03 0.0000000000000000e+00  -3.3985035045991936e-02 -