<?xml version="1.0"?>
<VTKFile type="UnstructuredGrid"  version="0.1"  >
<UnstructuredGrid>
<Piece  NumberOfPoints="589" NumberOfCells="1080">
<Points>
<DataArray  type="Float64"  NumberOfComponents="3"  format="ascii">-9 0 0  -8 0 0  -7 0 0  -6 0 0  -5 0 0  -4 0 0  -3 0 0  -2 0 0  -1 0 0  0 0 0  1 0 0  2 0 0  3 0 0  4 0 0  5 0 0  6 0 0  7 0 0  8 0 0  9 0 0  -9 2 0  -7.999998152861997 2.000002259938069 0  -6.999996198898558 2.000004252001382 0  -5.999993843060698 2.000005759615199 0  -4.999990372323937 2.000006688728686 0  -3.999993974573162 2.000004927866141 0  -2.999997614911528 2.000003321102102 0  -1.999999404351807 2.000001834087679 0  -0.9999997360332865 2.000000634942904 0  8.765559098879535e-07 2.000000029630637 0  1.000001663642849 2.000000181146423 0  2.000001917548384 2.000000964551676 0  3.000001218006193 2.000001846356695 0  3.999999571231511 2.000002506372982 0  4.999997381766066 2.00000187101138 0  5.999998819536944 2.000002315489193 0  6.999999427786965 2.000001992270679 0  7.999999748222959 2.000001133983287 0  9 2 0  -9.000000000004983 4 0  -7.999996733014306 4.000005591402394 0  -6.999994005290644 4.000010441822284 0  -5.999992145713906 4.000013833243448 0  -4.999991128315622 4.000015097539858 0  -3.999996138751607 4.000014023792839 0  -2.999999445521999 4.000009544851288 0  -2.00000026935265 4.000003823773256 0  -0.9999989459157227 3.999999174164319 0  3.55188354562696e-06 3.99999709149861 0  1.00000617424814 3.999997939595436 0  2.000007957591662 4.000000826723017 0  3.000007966801828 4.000004657343902 0  4.000005938212642 4.000008066233536 0  5.000002477234834 4.000007699146233 0  6.000000957161641 4.000007701768252 0  7.000000006833273 4.000006124825737 0  7.99999977108177 4.000003370759956 0  9 4 0  -9 6 0  -7.999993156053525 6.000011886919411 0  -6.999988339084855 6.000022467749583 0  -5.999987079657942 6.000030415473296 0  -4.999989778085489 6.000034503731235 0  -3.999999323696793 6.000027617668901 0  -3.000003485574923 6.000013940838252 0  -2.00000132059865 5.999999771194838 0  -0.9999966840524901 5.999992068637489 0  7.762551863113382e-06 5.999990359877946 0  1.00001159051867 5.999992225870408 0  2.000014515121013 5.999997735976588 0  3.000015894461051 6.000007105637392 0  4.000014405256836 6.000016439292864 0  5.000007641517051 6.000020019422112 0  6.000000815784378 6.000019406380749 0  6.999997727548008 6.000014965945372 0  7.999997935238207 6.000008074373771 0  9 6 0  -9 8 0  -7.999981470843592 8.00002340735068 0  -6.999968442499839 8.00004502668469 0  -5.999966182100911 8.000062436108367 0  -4.999979027044132 8.000071661952031 0  -3.999997907126287 8.000040985004368 0  -2.999992952260143 8.000005336584586 0  -1.999984625434073 7.999988801483294 0  -0.9999834669223691 7.999987985870932 0  1.239323900743317e-05 7.999987909442702 0  1.00000900737412 7.99998620975834 0  2.000009796205352 7.999991501566933 0  3.00001708595719 8.000000572834002 0  4.000019727695356 8.000025035443249 0  5.0000037375229 8.000052910553929 0  5.999985724035803 8.000046421186857 0  6.999982264189421 8.0000336120435 0  7.999988670834751 8.000017509496228 0  9 8 0  -9 10 0  -7.99994777940101 10.00004208220292 0  -6.999905470905017 10.00008442889962 0  -5.999884860556485 10.00012719702826 0  -4.999902254331563 10.00017029710965 0  -3.999933040248281 10.00006909239613 0  -2.999925402082754 9.999982787584639 0  -1.999936467327053 10.0000010762909 0  -0.9999632438879817 10.00000700711028 0  1.80007454409234e-05 10.00000845214947 0  0.9999999697592061 10.00000801169164 0  1.999976598975841 10.0000072396786 0  2.999955207711482 9.999978849884817 0  3.999957390414657 10.0000446170337 0  4.999928505207861 10.00013217259421 0  5.999912413065517 10.00009871843443 0  6.999927332092258 10.00006543353589 0  7.99995971466603 10.00003257348663 0  9 10 0  -9 12 0  -7.999874425231816 12.00005970433323 0  -6.999755683416111 12.00012215433519 0  -5.999651477592874 12.00019064586858 0  -4.999571270486487 12.00026980991743 0  -3.999587338917239 12.00008174471317 0  -2.999570275932502 11.99989518902444 0  -1.999682001896386 11.9999217580906 0  -0.9998106639423648 11.99993823074493 0  5.322492181931135e-05 11.9999452533868 0  0.9999135873065114 11.999942759405 0  1.999773143713258 11.99992904504577 0  2.999636895657204 11.9998995224337 0  3.999649020414002 12.0000569582595 0  4.999642674945724 12.00021543439246 0  5.999715036144944 12.00015034578592 0  6.999802535495313 12.0000955599726 0  7.999899141392826 12.00004649386159 0  9 12 0  -9 14 0  -7.999773708836276 14.00006634994013 0  -6.999547703219577 14.00013572431954 0  -5.999322016375831 14.0002114202211 0  -4.999095943444257 14.00029726906354 0  -3.999093824414385 14.00007243922282 0  -2.999089860731879 13.99984455523259 0  -1.999359849856817 13.99988283645882 0  -0.9996283197202311 13.99990726430713 0  0.0001025473987143915 13.99992012912131 0  0.9998304511394358 13.99992239725853 0  1.99955296163037 13.99991409499541 0  2.999267768225939 13.99989467414709 0  3.999264143681476 14.00006156006019 0  4.999265704301047 14.00022697176312 0  5.999457061216191 14.00016077656781 0  6.999641286815051 14.00010281606206 0  7.999821541631302 14.00005012970581 0  9 14 0  -9 16 0  -7.999671807660611 16.00006090206276 0  -6.999338378016796 16.00012401708011 0  -5.998993987525169 16.00019159593878 0  -4.998631868321847 16.00026592091283 0  -3.998619738314568 16.00006620221808 0  -2.998628923114849 15.9998672317813 0  -1.999043878760489 15.99989935816833 0  -0.9994433767362391 15.99992257364513 0  0.0001637097098667963 15.99993741219211 0  0.9997689127143552 15.99994433617894 0  1.999363663163117 15.99994363797906 0  2.998938762236843 15.99993548173311 0  3.998926010091255 16.00006455894006 0  4.998938341905767 16.00019350306033 0  5.999227536137004 16.00013827761976 0  6.999495876959393 16.00008898177921 0  7.999751102256179 16.00004354204489 0  9 16 0  -9 18 0  -7.999590809163829 18.00004660359806 0  -6.999172815616838 18.00009445886202 0  -5.998736744027067 18.00014479396798 0  -4.998272356475847 18.00019877654871 0  -3.998253876526872 18.00006266364466 0  -2.998269453124749 17.99992646387324 0  -1.998789866499204 17.99995154636083 0  -0.9992848380318682 17.99997141439586 0  0.0002323892781843854 17.99998637654873 0  0.9997492162209894 17.99999678587729 0  1.999253055813481 18.00000303369095 0  2.998730734708191 18.00000557555164 0  3.998713429078407 18.00006671289935 0  4.998730970322418 18.00012731606757 0  5.999081341066702 18.00009206575043 0  6.999402878519349 18.00005972628282 0  7.999705945638144 18.00002936457802 0  9 18 0  -9 20 0  -7.999544978301986 20.00002729771403 0  -6.999079481708216 20.00005498200765 0  -5.998592629333474 20.00008340246258 0  -4.998072723762957 20.00011283140634 0  -3.998051491431215 20.0000602562203 0  -2.9980703610649 20.00000757193702 0  -1.998637758214945 20.00002460885159 0  -0.9991751639080203 20.0000398942635 0  0.0003026564528701484 20.00005356857772 0  0.99978150054666 20.00006589706124 0  1.999247208423706 20.00007726695594 0  2.998685145454856 20.00008819799455 0  3.998666506297739 20.00006743145354 0  4.998685810407991 20.00004619765309 0  5.99905039457617 20.00003421223124 0  6.999383711473809 20.00002256046405 0  7.999696814817436 20.00001119827249 0  8.999999999965855 19.9999999999895 0  -9 22 0  -7.999541007807336 22.00000644431107 0  -6.999071489040729 22.00001255946405 0  -5.998580592437179 22.00001797568337 0  -4.998056813977181 22.00002224098731 0  -3.998035853329292 22.00005903209351 0  -2.998054855215079 22.00009569001333 0  -1.998605747322504 22.00010468257789 0  -0.9991264595002036 22.00011482394189 0  0.0003688220484064626 22.00012614902358 0  0.9998663806256058 22.00013884685596 0  1.999352558261837 22.00015325842465 0  2.998813346746706 22.00016988015194 0  3.998796150762099 22.00006719635261 0  4.998814388639615 21.99996410089945 0  5.999144434306923 21.99997502513171 0  6.999445350441805 21.99998423687003 0  7.999727334950255 21.99999237619945 0  9 22 0  -9 24 0  -7.999579105609294 23.99998690682254 0  -6.999148927264427 23.99997293122541 0  -5.998699950307308 23.99995715008374 0  -4.998222164538641 23.99993855952315 0  -3.99820382956465 24.00005871867558 0  -2.998220545512226 24.00017869877302 0  -1.99869457756268 24.00018015619786 0  -0.999141786517545 24.00018501374367 0  0.000425880746087324 24.00019323302716 0  0.9999968432225026 24.00020493548154 0  1.999559587274727 24.0002204017906 0  2.999102369036756 24.00024007353953 0  3.999088716031934 24.00006618702964 0  4.999103659041285 23.99989191907801 0  5.999354908317599 23.99992269014265 0  6.999582666138084 23.99995020447541 0  7.999795109805011 23.999975617191 0  9 24 0  -9 26 0  -7.999654275008691 25.99997089888565 0  -6.999301487492892 25.99994052336866 0  -5.998934415294789 25.99990755939413 0  -4.99854550989527 25.99987061421838 0  -3.998531547039637 26.00005906410302 0  -2.998544157246132 26.00024729836971 0  -1.998890811237103 26.00024201985918 0  -0.9992166681555799 26.00024174569051 0  0.0004697652096227395 26.00024637283462 0  1.000160242548994 26.00025595636235 0  1.999846591140389 26.00027070995219 0  2.999520521212342 26.00029100633583 0  3.999511885736481 26.00006462066965 0  4.999521962698664 25.99983789332652 0  5.999659257356898 25.99988338575164 0  6.999781182272635 25.99992458137804 0  7.99989306968181 25.99996297982029 0  9 26 0  -9 28 0  -7.99975765000103 27.99995998854986 0  -6.999511103870018 27.99991846795824 0  -5.999256084430836 27.99987389055092 0  -4.998988144700593 27.99982463202967 0  -3.998979699731465 28.00005985056831 0  -2.998986972366088 28.00029482172297 0  -1.999170341351968 28.00028385543242 0  -0.9993407557832139 28.0002788618198 0  0.0004974804138999932 28.00027967514207 0  1.000340220653123 28.00028628440815 0  2.000183393641546 28.00029883331254 0  3.000022919296002 28.000317620374 0  4.000020176684353 28.00006273259379 0  5.000024428891197 27.99980754357497 0  6.000024983832486 27.99986127326133 0  7.00001978278544 27.9999101505
[...]
<PointData  Vectors="f_44-0"> 
<DataArray  type="Float64"  Name="f_44-0"  NumberOfComponents="3" format="ascii">0.0000000000000000e+00 0.0000000000000000e+00 0.0000000000000000e+00  3.4396738463907711e-07 -1.2189994356981391e+01 0.0000000000000000e+00  3.9664842992472801e-07 -1.2934542748270525e+01 0.0000000000000000e+00  4.1501458296948316e-07 -1.2273961399637983e+01 0.0000000000000000e+00  0.0000000000000000e+00 0.0000000000000000e+00 0.0000000000000000e+00  0.0000000000000000e+00 0.0000000000000000e+00 0.0000000000000000e+00  0.0000000000000000e+00 0.0000000000000000e+00 0.0000000000000000e+00  0.0000000000000000e+00 0.0000000000000000e+00 0.0000000000000000e+00  0.0000000000000000e+00 0.0000000000000000e+00 0.0000000000000000e+00  0.0000000000000000e+00 0.0000000000000000e+00 0.0000000000000000e+00  0.0000000000000000e+00 0.0000000000000000e+00 0.0000000000000000e+00  0.0000000000000000e+00 0.0000000000000000e+00 0.0000000000000000e+00  0.0000000000000000e+00 0.0000000000000000e+00 0.0000000000000000e+00  0.0000000000000000e+00 0.0000000000000000e+00 0.0000000000000000e+00  0.0000000000000000e+00 0.0000000000000000e+00 0.0000000000000000e+00  3.4855784210640963e-07 -1.2171236675032079e+01 0.0000000000000000e+00  3.9573847258854696e-07 -1.2918478853095287e+01 0.0000000000000000e+00  4.1353056868159118e-07 -1.2259317610312989e+01 0.0000000000000000e+00  0.0000000000000000e+00 0.0000000000000000e+00 0.0000000000000000e+00  0.0000000000000000e+00 0.0000000000000000e+00 0.0000000000000000e+00  -3.0345984776315477e-02 -1.2255530302122375e+01 0.0000000000000000e+00  -2.1119557658265918e-02 -1.2930194692977544e+01 0.0000000000000000e+00  -3.1743801651258327e-02 -1.2252768074084440e+01 0.0000000000000000e+00  2.2850840704790896e-04 4.7750010066701000e-04 0.0000000000000000e+00  -1.2482745398397786e-05 5.2269658454694515e-04 0.0000000000000000e+00  -4.5307942752819297e-05 3.3342929499108451e-04 0.0000000000000000e+00  -9.4986308998353937e-05 8.8423740968335791e-05 0.0000000000000000e+00  -4.2388673033322285e-05 -6.7565885151465627e-05 0.0000000000000000e+00  5.0846080775817351e-05 -8.5964603695298767e-05 0.0000000000000000e+00  1.4485663600953988e-04 7.2428537580118423e-06 0.0000000000000000e+00  1.7463288527228346e-04 1.6487846797728803e-04 0.0000000000000000e+00  1.3756340635407343e-04 3.8224093323175473e-04 0.0000000000000000e+00  2.5727058318074693e-05 4.7246088222132758e-04 0.0000000000000000e+00  -1.0793406920887041e-04 5.5220106778537236e-04 0.0000000000000000e+00  -3.1571630850687267e-02 -1.2242061415289397e+01 0.0000000000000000e+00  -2.2405797406274210e-02 -1.2917982267311864e+01 0.0000000000000000e+00  -3.3721706605812252e-02 -1.2239714740561912e+01 0.0000000000000000e+00  0.0000000000000000e+00 0.0000000000000000e+00 0.0000000000000000e+00  0.0000000000000000e+00 0.0000000000000000e+00 0.0000000000000000e+00  -1.6005200009936174e-02 -1.2257367278861780e+01 0.0000000000000000e+00  -3.1344498409989548e-02 -1.2945438109346254e+01 0.0000000000000000e+00  -3.2681652149994106e-02 -1.2249537118532043e+01 0.0000000000000000e+00  7.3153706631537733e-04 1.3494728444716623e-03 0.0000000000000000e+00  1.2713904460804091e-04 8.0926595995574075e-04 0.0000000000000000e+00  -1.5244977289374440e-04 1.6392260750089702e-04 0.0000000000000000e+00  -1.8834594955055844e-04 -1.8832362710833781e-04 0.0000000000000000e+00  -1.4927608303233869e-05 -2.1778328217977094e-04 0.0000000000000000e+00  1.5724745608581328e-04 -1.1754026325787164e-04 0.0000000000000000e+00  2.6084719745086450e-04 -1.9816372370425800e-06 0.0000000000000000e+00  1.7437763438844125e-04 3.4339491007367241e-04 0.0000000000000000e+00  8.7544943026388614e-05 7.8262872122162317e-04 0.0000000000000000e+00  -4.8708308156396974e-05 9.4989461498720261e-04 0.0000000000000000e+00  -2.3570150751790720e-04 9.5327037077172906e-04 0.0000000000000000e+00  -1.6576324234902465e-02 -1.2237885498552691e+01 0.0000000000000000e+00  -3.1850547717274455e-02 -1.2925504639175845e+01 0.0000000000000000e+00  -3.3862649138032323e-02 -1.2228716743159110e+01 0.0000000000000000e+00  0.0000000000000000e+00 0.0000000000000000e+00 0.0000000000000000e+00  0.0000000000000000e+00 0.0000000000000000e+00 0.0000000000000000e+00  -5.3892880985116302e-03 -1.2247749385138684e+01 0.0000000000000000e+00  -1.2442423584602656e-02 -1.2932330029334766e+01 0.0000000000000000e+00  -2.2677140539202334e-02 -1.2229961862562080e+01 0.0000000000000000e+00  1.0642051486078449e-03 1.5409306447067206e-03 0.0000000000000000e+00  9.9914491026746030e-05 5.1037221676569170e-04 0.0000000000000000e+00  -1.9126701147179236e-04 -7.6042167511631954e-05 0.0000000000000000e+00  1.5483974172637407e-04 2.1528004944313981e-04 0.0000000000000000e+00  1.9181518013042988e-04 2.4310687263526370e-04 0.0000000000000000e+00  1.2745379249550618e-04 -1.6023329186497917e-04 0.0000000000000000e+00  1.1876841832754867e-04 -2.0125734868912189e-04 0.0000000000000000e+00  3.3516597665712692e-04 1.4772926632184249e-04 0.0000000000000000e+00  2.7766338797966092e-04 7.4728522347780244e-04 0.0000000000000000e+00  -4.3788509977838843e-05 1.9819469194254985e-03 0.0000000000000000e+00  -2.3836190655055902e-04 2.8552122465610509e-03 0.0000000000000000e+00  -8.0029410988921214e-03 -1.2229945633278497e+01 0.0000000000000000e+00  -1.8813679915509609e-02 -1.2919925510681532e+01 0.0000000000000000e+00  -3.0269956115497029e-02 -1.2224276575054938e+01 0.0000000000000000e+00  0.0000000000000000e+00 0.0000000000000000e+00 0.0000000000000000e+00  0.0000000000000000e+00 0.0000000000000000e+00 0.0000000000000000e+00  -2.4003704939771649e-03 -1.2253864261317950e+01 0.0000000000000000e+00  -5.0397435940817883e-03 -1.2937481265164553e+01 0.0000000000000000e+00  -1.8552332535668663e-02 -1.2239505875345509e+01 0.0000000000000000e+00  3.4733643598609588e-03 4.9205280319358641e-03 0.0000000000000000e+00  2.9144056927246083e-03 1.8679252341765233e-03 0.0000000000000000e+00  8.6460433470539398e-04 1.6856790799855896e-03 0.0000000000000000e+00  1.2846470867091597e-03 1.8870807140415769e-03 0.0000000000000000e+00  1.3878021778164222e-04 5.6503478467472966e-04 0.0000000000000000e+00  -4.3616494676734736e-04 3.0811437470253404e-04 0.0000000000000000e+00  -1.2050009820956770e-03 1.1610275302502517e-03 0.0000000000000000e+00  -1.0963982153423754e-03 -1.4834079553617492e-05 0.0000000000000000e+00  -3.2900781480131648e-03 1.5999238504385608e-03 0.0000000000000000e+00  -3.3984783850367437e-03 5.2409393834762378e-03 0.0000000000000000e+00  -3.0447181764511771e-03 6.9855075777894562e-03 0.0000000000000000e+00  -5.4066698411156409e-03 -1.2233246999367569e+01 0.0000000000000000e+00  -5.9880709503058460e-03 -1.2916868930548810e+01 0.0000000000000000e+00  -1.9699539310794101e-02 -1.2222692730519171e+01 0.0000000000000000e+00  0.0000000000000000e+00 0.0000000000000000e+00 0.0000000000000000e+00  0.0000000000000000e+00 0.0000000000000000e+00 0.0000000000000000e+00  -8.5143779006930840e-04 -1.2255812734613606e+01 0.0000000000000000e+00  4.4362696302320953e-03 -1.2935256001850307e+01 0.0000000000000000e+00  2.3647917913209061e-03 -1.2233821836531851e+01 0.0000000000000000e+00  1.8315024380838610e-02 5.1653638069627675e-03 0.0000000000000000e+00  1.3470019803203708e-02 1.0177119287830571e-03 0.0000000000000000e+00  8.9595730193068358e-03 -2.6436508676010305e-03 0.0000000000000000e+00  2.3352292162951557e-03 4.7015470337129625e-03 0.0000000000000000e+00  8.4170591651774158e-04 2.1953657615194854e-03 0.0000000000000000e+00  -9.6578915000717182e-04 1.7215398794725946e-03 0.0000000000000000e+00  -2.6243967187403812e-03 1.7309311609189344e-03 0.0000000000000000e+00  -4.0092661738136293e-03 1.8986371468884570e-03 0.0000000000000000e+00  -1.0973868947769276e-02 9.2502967702235816e-04 0.0000000000000000e+00  -1.2406005139234653e-02 7.2688528958038271e-03 0.0000000000000000e+00  -1.5018618657941818e-02 1.4178348425801143e-02 0.0000000000000000e+00  -1.2002261727424307e-02 -1.2230824972287307e+01 0.0000000000000000e+00  -5.9856552301814090e-03 -1.2916376734891053e+01 0.0000000000000000e+00  -1.1160254092958144e-02 -1.2224727922161611e+01 0.0000000000000000e+00  0.0000000000000000e+00 0.0000000000000000e+00 0.0000000000000000e+00  0.0000000000000000e+00 0.0000000000000000e+00 0.0000000000000000e+00  2.3164611396391376e-03 -1.2265997943076883e+01 0.0000000000000000e+00  1.4720256044041887e-02 -1.2943548684863373e+01 0.0000000000000000e+00  1.8947180564881524e-02 -1.2242149053388644e+01 0.0000000000000000e+00  3.0911824936513958e-02 1.2474152523503562e-02 0.0000000000000000e+00  3.2205793688129376e-02 1.2689002940220919e-03 0.0000000000000000e+00  3.6327586413675339e-02 -1.2689801224204730e-02 0.0000000000000000e+00  1.1499315908814464e-02 1.5421709588290847e-02 0.0000000000000000e+00  2.9089923002288847e-03 1.6580646356745381e-02 0.0000000000000000e+00  -3.2012846841991387e-03 1.8135661040563952e-02 0.0000000000000000e+00  -9.1368899774160756e-03 1.5627298914216475e-02 0.0000000000000000e+00  -1.7624785319192173e-02 8.0789558948584049e-03 0.0000000000000000e+00  -2.8869155445061426e-02 -3.8466399758334147e-03 0.0000000000000000e+00  -3.0744791235967159e-02 6.7569388054604463e-03 0.0000000000000000e+00  -3.3613457165448168e-02 1.5987393068218773e-02 0.0000000000000000e+00  -2.1317568665059995e-02 -1.2233631454520973e+01 0.0000000000000000e+00  -1.1458809090203378e-02 -1.2926879899452290e+01 0.0000000000000000e+00  -9.1528730238074740e-03 -1.2235883200941002e+01 0.0000000000000000e+00  0.0000000000000000e+00 0.0000000000000000e+00 0.0000000000000000e+00  0.0000000000000000e+00 0.0000000000000000e+00 0.0000000000000000e+00  6.8362065731700531e-03 -1.2288783981690612e+01 0.0000000000000000e+00  2.6649486810280600e-02 -1.2965000881644666e+01 0.0000000000000000e+00  3.8548629628726780e-02 -1.2265776659544370e+01 0.0000000000000000e+00  5.0100086808651675e-02 1.6839635160202433e-02 0.0000000000000000e+00  5.1604199070008211e-02 4.9565473976707951e-03 0.0000000000000000e+00  5.2376343831547101e-02 -5.2503831189634779e-03 0.0000000000000000e+00  4.4228297122591069e-02 4.0044557132350472e-02 0.0000000000000000e+00  2.0528239161283504e-02 4.4671530034169148e-02 0.0000000000000000e+00  -3.9061988012441474e-04 4.7049438559905135e-02 0.0000000000000000e+00  -1.9489458693638908e-02 4.5411202298042803e-02 0.0000000000000000e+00  -3.6674838189253774e-02 4.1460023314341142e-02 0.0000000000000000e+00  -5.1452622181411355e-02 -7.8931263314898914e-03 0.0000000000000000e+00  -5.2835215460582251e-02 4.3144716824199793e-03 0.0000000000000000e+00  -5.3592965135057319e-02 1.7021719007538107e-02 0.0000000000000000e+00  -4.2911621182007607e-02 -1.2260707963274882e+01 0.0000000000000000e+00  -1.8091861299251524e-02 -1.2950885237151764e+01 0.0000000000000000e+00  -1.0827602773652594e-02 -1.2262064770866580e+01 0.0000000000000000e+00  0.0000000000000000e+00 0.0000000000000000e+00 0.0000000000000000e+00  0.0000000000000000e+00 0.0000000000000000e+00 0.0000000000000000e+00  1.1715507771946047e-02 -1.2325837596854297e+01 0.0000000000000000e+00  3.8442750404419510e-02 -1.3001296588762848e+01 0.0000000000000000e+00  5.6819655946031007e-02 -1.2306301100331378e+01 0.0000000000000000e+00  7.1185254098790743e-02 1.7479555652978752e-02 0.0000000000000000e+00  7.2971196997700813e-02 7.3200360622888245e-03 0.0000000000000000e+00  7.3336620488922297e-02 -2.9314717100091202e-03 0.0000000000000000e+00  5.8093190157584615e-02 9.5248477167196505e-02 0.0000000000000000e+00  2.7895763823187321e-02 9.4007706342153177e-02 0.0000000000000000e+00  -5.1055543314461045e-04 9.4836364115202659e-02 0.0000000000000000e+00  -2.8259917899842956e-02 9.3327790018858409e-02 0.0000000000000000e+00  -5.8138806417088761e-02 9.1822985402715357e-02 0.0000000000000000e+00  -7.3471926493778955e-02 -7.5976128244887283e-03 0.0000000000000000e+00  -7.5064783040225985e-02 3.0027359336906876e-03 0.0000000000000000e+00  -7.5242045676390312e-02 1.3212865630169067e-02 0.0000000000000000e+00  -6.3607058581836573e-02 -1.2305814876805762e+01 0.0000000000000000e+00  -2.9078105088611667e-02 -1.2991145997744285e+01 0.0000000000000000e+00  -1.2521105825791440e-02 -1.2302735337724643e+01 0.0000000000000000e+00  0.0000000000000000e+00 0.0000000000000000e+00 0.0000000000000000e+00  0.0000000000000000e+00 0.0000000000000000e+00 0.0000000000000000e+00  1.5729840586595482e-02 -1.2374986815516843e+01 0.0000000000000000e+00  4.7602346062641042e-02 -1.3049851402522874e+01 0.0000000000000000e+00  7.0123395918912840e-02 -1.2360130491719506e+01 0.0000000000000000e+00  8.7313154699297402e-02 1.4903661204133599e-02 0.0000000000000000e+00  8.8994760741405249e-02 8.4912433510860967e-03 0.0000000000000000e+00  8.8335138982841704e-02 2.2883448810482594e-03 0.0000000000000000e+00  7.1188819356879443e-02 1.5810949689113943e-01 0.0000000000000000e+00  3.4042747399318972e-02 1.5520502879505485e-01 0.0000000000000000e+00  -9.3788895319217840e-04 1.5626721298853144e-01 0.0000000000000000e+00  -3.5503765472710856e-02 1.5584903753825224e-01 0.0000000000000000e+00  -7.3033689235607047e-02 1.5827156594444822e-01 0.0000000000000000e+00  -9.0556475272078427e-02 -4.4465062508337256e-03 0.0000000000000000e+00  -9.2144867008871867e-02 2.1203093635860162e-03 0.0000000000000000e+00  -9.1394322469630487e-02 8.5160463836576033e-03 0.0000000000000000e+00  -8.0103774409687370e-02 -1.2364132983230000e+01 0.0000000000000000e+00  -4.0582727244678048e-02 -1.3042840397802205e+01 0.0000000000000000e+00  -1.6011962265633544e-02 -1.2354308898729865e+01 0.0000000000000000e+00  0.0000000000000000e+00 0.0000000000000000e+00 0.0000000000000000e+00  0.0000000000000000e+00 0.0000000000000000e+00 0.0000000000000000e+00  1.8006751312735287e-02 -1.2431445779520725e+01 0.0000000000000000e+00  5.2348591289711401e-02 -1.3105627765753026e+01 0.0000000000000000e+00  7.6128384265752094e-02 -1.2421466864233064e+01 0.0000000000000000e+00  9.4857686350857784e-02 1.0398742769411329e-02 0.0000000000000000e+00  9.6301583220593512e-02 9.1137948885203091e-03 0.0000000000000000e+00  9.5149640713108469e-02 7.9938785282185586e-03 0.0000000000000000e+00  7.5787036025841734e-02 2.3481682518545327e-01 0.0000000000000000e+00  3.6334801371888326e-02 2.2693960751450432e-01 0.0000000000000000e+00  -1.4835365677458351e-03 2.2681871116697028e-01 0.0000000000000000e+00  -3.8995252720068332e-02 2.2752764194111480e-01 0.0000000000000000e+00  -8.0286929153649031e-02 2.3491311913912083e-01 0.0000000000000000e+00  -9.8878396335059751e-02 5.3140817854288765e-04 0.0000000000000000e+00  -1.0021748005304200e-01 1.9513775478673427e-03 0.0000000000000000e+00  -9.8930025479464501e-02 3.2284347727987448e-03 0.0000000000000000e+00  -8.8298619839686107e-02 -1.2429856270319199e+01 0.0000000000000000e+00  -4.8653597315665369e-02 -1.3101519566761359e+01 0.0000000000000000e+00  -2.0113723002459553e-02 -1.2412237696514776e+01 0.0000000000000000e+00  -7.5182596055876676e-11 4.3537254273676538e-10 0.0000000000000000e+00  0.0000000000000000e+00 0.0000000000000000e+00 0.0000000000000000e+00  1.8095320909855880e-02 -1.2489162810795465e+01 0.0000000000000000e+00  5.1809552911508891e-02 -1.3162546943827364e+01 0.0000000000000000e+00  7.3790497866710811e-02 -1.2483584114170108e+01 0.0000000000000000e+00  9.2216003497266691e-02 5.0277948328345994e-03 0.0000000000000000e+00  9.3318237194323028e-02 9.1622794342351953e-03 0.0000000000000000e+00  9.1879127912269487e-02 1.3419811189283452e-02 0.0000000000000000e+00  7.2340347792833035e-02 3.1293050666950956e-01 0.0000000000000000e+00  3.4710281276772198e-02 3.0025140997163324e-01 0.0000000000000000e+00  -1.8993896040545501e-03 2.9910373682118929e-01 0.0000000000000000e+00  -3.8339630624669996e-02 3.0096629287148452e-01 0.0000000000000000e+00  -7.9037422777972530e-02 3.1344106854842657e-01 0.0000000000000000e+00  -9.6819525610513893e-02 6.3117817758480306e-03 0.0000000000000000e+00  -9.7818281071342356e-02 2.2604784913246466e-03 0.0000000000000000e+00  -9.6269689034687245e-02 -1.9103335693191120e-03 0.0000000000000000e+00  -8.6902349368856532e-02 -1.2495857822714882e+01 0.0000000000000000e+00  -5.0985852838099158e-02 -1.3160933623881903e+01 0.0000000000000000e+00  -2.2910133288649794e-02 -1.2471025073782291e+01 0.0000000000000000e+00  0.0000000000000000e+00 0.0000000000000000e+00 0.0000000000000000e+00  0.0000000000000000e+00 0.0000000000000000e+00 0.0000000000000000e+00  1.5913018110543332e-02 -1.2541809302864756e+01 0.0000000000000000e+00  4.5937686366659583e-02 -1.3214367550483715e+01 0.0000000000000000e+00  6.3276690279309281e-02 -1.2539682544413223e+01 0.0000000000000000e+00  7.9415469999056049e-02 -3.7025822400716947e-04 0.0000000000000000e+00  8.0091759225379200e-02 8.7565188312781032e-03 0.0000000000000000e+00  7.8596527096882321e-02 1.7975545484097643e-02 0.0000000000000000e+00  6.0952994294162136e-02 3.8484497856003447e-01 0.0000000000000000e+00  2.9282259450144753e-02 3.6759459558287161e-01 0.0000000000000000e+00  -2.2176967155116004e-03 3.6538004251071676e-01 0.0000000000000000e+00  -3.3631384642186367e-02 3.6821495065331050e-01 0.0000000000000000e+00  -6.9375340974313179e-02 3.8543309659288122e-01 0.0000000000000000e+00  -8.4435032961549888e-02 1.2023128057214656e-02 0.0000000000000000e+00  -8.5018579700103999e-02 2.9402934406727935e-03 0.0000000000000000e+00  -8.3427321454648831e-02 -6.2265346925355304e-03 0.0000000000000000e+00  -7.6197256371175484e-02 -1.2555121224671394e+01 0.0000000000000000e+00  -4.6986529533004452e-02 -1.3214621894537501e+01 0.0000000000000000e+00  -2.3211835173833913e-02 -1.2524533064034593e+01 0.0000000000000000e+00  0.0000000000000000e+00 0.0000000000000000e+00 0.0000000000000000e+00  0.0000000000000000e+00 0.0000000000000000e+00 0.0000000000000000e+00  1.1686565700689830e-02 -1.2583604670893047e+01 0.0000000000000000e+00  3.5369393806548931e-02 -1.3255431903767283e+01 0.0000000000000000e+00  4.5765903602801764e-02 -1.2583662248916182e+01 0.0000000000000000e+00  5.7808438660554011e-02 -5.1060983149033316e-03 0.0000000000000000e+00  5.8016536273769855e-02 8.0076922288284599e-03 0.0000000000000000e+00  5.6649313651801085e-02 2.1182108536988001e-02 0.0000000000000000e+00  4.2879754585896407e-02 4.4263006877721672e-01 0.0000000000000000e+00  2.0602572770727266e-02 4.2166665658830749e-01 0.0000000000000000e+00  -2.4349294997790603e-03 4.1852966823453591e-01 0.0000000000000000e+00  -2.5431786227411966e-02 4.2208519119550564e-01 0.0000000000000000e+00  -5.2495479554302636e-02 4.4318416505339531e-01 0.0000000000000000e+00  -6.3096089596893112e-02 1.6973689238788461e-02 0.0000000000000000e+00  -6.3224449943179162e-02 3.8756944722089207e-03 0.0000000000000000e+00  -6.1779200137948735e-02 -9.2746997388903005e-03 0.0000000000000000e+00  -5.7555868916270368e-02 -1.2601457563352986e+01 0.0000000000000000e+00  -3.7212990239025419e-02 -1.3256918498093588e+01 0.0000000000000000e+00  -2.0687674088977145e-02 -1.2567056306740373e+01 0.0000000000000000e+00  0.0000000000000000e+00 0.0000000000000000e+00 0.0000000000000000e+00  0.0000000000000000e+00 0.0000000000000000e+00 0.0000000000000000e+00  5.8760257151563465e-03 -1.2609977062353648e+01 0.0000000000000000e+00  2.1262011638165601e-02 -1.3281281607398238e+01 0.0000000000000000e+00  2.3193865378806178e-02 -1.2610770559444500e+01 0.0000000000000000e+00  2.9749405581371707e-02 -8.6579925976264065e-03 0.0000000000000000e+00  2.9483245994820113e-02 7.0220122066040188e-03 0.0000000000000000e+00  2.8389388155941969e-02 2.2732535799666252e-02 0.0000000000000000e+00  2.0056589677243865e-02 4.8008485482599239e-01 0.0000000000000000e+00  9.6002897821373390e-03 4.5667791737714397e-01 0.0000000000000000e+00  -2.5542078003653653e-03 4.5287471329671480e-01 0.0000000000000000e+00  -1.4677021214012306e-02 4.5683069439667684e-01 0.0000000000000000e+00  -3.0300866892868213e-02 4.8052701327888908e-01 0.0000000000000000e+00  -3.5172163536037498e-02 2.0641348960023228e-02 0.0000000000000000e+00  -3.4840325838188732e-02 4.9556929933310505e-03 0.0000000000000000e+00  -3.3686076608335933e-02 -1.0751006135737111e-0