<?xml version="1.0"?>
<VTKFile type="UnstructuredGrid"  version="0.1"  >
<UnstructuredGrid>
<Piece  NumberOfPoints="589" NumberOfCells="1080">
<Points>
<DataArray  type="Float64"  NumberOfComponents="3"  format="ascii">-9 0 0  -8 0 0  -7 0 0  -6 0 0  -5 0 0  -4 0 0  -3 0 0  -2 0 0  -1 0 0  0 0 0  1 0 0  2 0 0  3 0 0  4 0 0  5 0 0  6 0 0  7 0 0  8 0 0  9 0 0  -9 2 0  -8.000005473389001 1.999991796848006 0  -7.000011462228121 1.999984611146083 0  -6.000019202973744 1.99997927005957 0  -5.000031542857528 1.999976139994264 0  -4.000018643255823 1.999982171759495 0  -3.000005412883681 1.999987919032776 0  -1.99999898403116 1.999993326777966 0  -0.9999979568409019 1.999997606621512 0  -3.102895031294213e-07 1.999999500789902 0  0.9999970734501383 1.999998244634798 0  1.999997215579601 1.999994160003581 0  3.000002133658728 1.999989171605637 0  4.000012424020931 1.999983904386221 0  5.000027312134314 1.999981970447461 0  6.000016401287936 1.999982582859236 0  7.000009736167507 1.999986510018846 0  8.000004649021676 1.999992682669472 0  9 2 0  -9 4 0  -8.000008884886478 3.999979524277089 0  -7.000015916847053 3.999961844115243 0  -6.000020009355616 3.999949696189449 0  -5.000021378606101 3.999945685639065 0  -4.000002584712163 3.999948588623138 0  -2.999990007188226 3.999964839582346 0  -1.999986774312441 3.999985966334251 0  -0.9999916501614745 4.000002975957882 0  -9.386690311600565e-07 4.000009876312141 0  0.9999895645101355 4.000004643926924 0  1.999983976088519 3.999990393091529 0  2.999986409473314 3.999971121440667 0  3.999998117867884 3.999951835222956 0  5.000016126308358 3.999945697964967 0  6.000015819607651 3.999951906966408 0  7.000013160350238 3.999964038466195 0  8.000007545399614 3.999980787027875 0  9 4 0  -9 6 0  -8.000019707597808 5.999956071336344 0  -7.000032129228166 5.99991694987469 0  -6.000031708768711 5.999887574489171 0  -5.000016860322766 5.999872669981469 0  -3.999980148535048 5.999896840847303 0  -2.999963507907675 5.99994715861231 0  -1.999970243695517 5.999999870076441 0  -0.9999868349155284 6.000029151696139 0  -3.587018068091341e-06 6.000035069649919 0  0.9999813761078905 6.000025708033096 0  1.99996990728863 5.999999732087767 0  2.99996554068546 5.999955836054444 0  3.99997406247102 5.999910396397617 0  5.000005127879541 5.99988808575839 0  6.000024648111607 5.999897542666033 0  7.000028406802641 5.999923100473655 0  8.000018162847256 5.99995903545501 0  9 6 0  -9 8 0  -8.00005966833201 7.999913398248892 0  -7.00009970664999 7.999833080641692 0  -6.000101118190939 7.999767578458974 0  -5.000047696689266 7.999730940827877 0  -3.999976476934198 7.999842220608472 0  -2.999989884965808 7.999972935347055 0  -2.00001689357329 8.000036521163775 0  -1.000019376450737 8.000043606695234 0  -3.599914197403184e-06 8.000045643900828 0  1.000008223269072 8.000052028771121 0  2.000003343551791 8.00002575725564 0  2.999972512873054 7.999981053531994 0  3.999962027377101 7.999869971116863 0  5.000031497793816 7.999744601142246 0  6.000096516141516 7.99977878746897 0  7.000099656281193 7.999840663464517 0  8.0000604494192 7.999917172912399 0  9 8 0  -9 10 0  -8.000178105175394 9.999845623949245 0  -7.000321745373251 9.999690004468398 0  -6.000389815198248 9.999532214543509 0  -5.000325108198457 9.999372071931932 0  -4.000211928196187 9.999731941326306 0  -3.000230977528996 10.00004130110699 0  -2.000185569395716 9.999987518184899 0  -1.000086405866391 9.999970264250129 0  -1.355043043687747e-05 9.999966059649831 0  1.000058619043234 9.999966431961413 0  2.000154623957751 9.99996468964614 0  3.000239119617215 10.0000753668532 0  4.000228491878863 9.999784755319661 0  5.000356075428105 9.999401192289433 0  6.000415803937119 9.999549345199028 0  7.000340235180746 9.999699732565725 0  8.000187668025299 9.999850065045127 0  9 10 0  -9 12 0  -8.000434197706227 11.99978289916435 0  -7.000845732170477 11.99955573804647 0  -6.001208974518677 11.9993064845943 0  -5.001492149877024 11.99901835455372 0  -4.00143392171362 11.99967569806819 0  -3.001486664807471 12.00032656395667 0  -2.001024450094022 12.00024739159053 0  -1.000509238681587 12.00020418489962 0  2.620837079844046e-05 12.0001951465767 0  1.00056726812915 12.0002215891174 0  2.001101662784644 12.00029133174916 0  3.001605232666836 12.0004239890762 0  4.00154999147104 11.99972607812603 0  5.001586809693263 11.99902245360285 0  6.001275823418179 11.99931112964358 0  7.000888579141502 11.99955912218868 0  8.000455150549641 11.99978460977196 0  9 12 0  -9 14 0  -8.000780520627803 13.99976050149052 0  -7.001562210823663 13.99950998979783 0  -6.002347244220567 13.99923647842602 0  -5.003140435289034 13.99892607229784 0  -4.003148211505561 13.99969610571056 0  -3.003153381739982 14.00047587304875 0  -2.002076113443662 14.0003635598951 0  -1.001013366286489 14.00030157150056 0  4.3608802866853e-05 14.00028243785426 0  1.001103186310948 14.00030370186657 0  2.002173162714404 14.00036653919212 0  3.003259662274035 14.00047438061865 0  4.003268345788082 13.99969932072994 0  5.003273140245511 13.99892909644552 0  6.002439871502302 13.99923597607149 0  7.001621073376202 13.99950872769906 0  8.000809155341921 13.9997596511198 0  9 14 0  -9 16 0  -8.001121587473911 15.9997822140545 0  -7.00226436515234 15.99955636179672 0  -6.003451351880978 15.99931423395303 0  -5.004709329961385 15.99904747047795 0  -4.004753703223724 15.9997067362429 0  -3.004711927988203 16.00036252901178 0  -2.003071182205355 16.00027889101126 0  -1.001495062105342 16.00022791088069 0  5.061781691989887e-05 16.00020847376911 0  1.00159819242194 16.00021985087705 0  2.00318002021484 16.00026205874614 0  3.004830530345795 16.00033569635611 0  4.004877858400545 15.99967967550965 0  5.004836684085751 15.99902313999293 0  6.003544339621325 15.99929755788293 0  7.00232501952242 15.99954580227412 0  8.001151496955199 15.9997770727581 0  9 16 0  -9 18 0  -8.001377279674402 17.99983620718863 0  -7.002788592045885 17.9996678968084 0  -6.004269737579524 17.99949062971871 0  -5.005860049482596 17.99930014757662 0  -4.005927425123053 17.99970957529172 0  -3.005862702306807 18.00011847047041 0  -2.003809655837335 18.00006397215698 0  -1.00185589395075 18.0000284724371 0  5.000717691676497e-05 18.00001164212402 0  1.001956986802518 18.00001305721522 0  2.003913916498392 18.00003222344396 0  3.00597198347217 18.00006848058734 0  4.006040672785899 17.99966487251139 0  5.005975368634586 17.99926244579192 0  6.004354770022284 17.99946397706521 0  7.002844558367991 17.99965086057194 0  8.001405041793541 17.99982789938227 0  9 18 0  -9 20 0  -8.001496274651009 19.9999082613804 0  -7.003032366389578 19.99981527373454 0  -6.004649616615053 19.99971991910419 0  -5.006392418500788 19.99962134002332 0  -4.00646949963831 19.9997099572232 0  -3.00639359871575 19.99979800898045 0  -2.004153144643999 19.99977334058539 0  -1.002026307497764 19.99975464493922 0  4.503445519743116e-05 19.99974211778501 0  1.00211689876413 19.9997355382054 0  2.00424527183084 19.99973428288357 0  3.006488189292389 19.99973728953489 0  4.006565530743901 19.99965741270817 0  5.006489288240202 19.99957836629069 0  6.00472165532833 19.99968902813774 0  7.003080089733858 19.99979531667407 0  8.001520043497349 19.99989847345147 0  8.999999999990081 19.99999999999864 0  -9 22 0  -8.001455477437755 21.9999853010308 0  -7.002950392600746 21.99997211634865 0  -6.004525424867053 21.99996210875287 0  -5.006223730617989 21.99995724122808 0  -4.006299295100531 21.9997071408938 0  -3.00622441584391 21.99945643562792 0  -2.004044347882108 21.99945891333146 0  -1.001975770930825 21.99945624698661 0  3.796545617149571e-05 21.99944890631819 0  1.002051790234868 21.99943681727461 0  2.004120609043966 21.99941937213651 0  3.006301003648087 21.9993954192492 0  4.00637541879699 21.99965496209364 0  5.006299452942413 21.99991501220911 0  6.004582348254362 21.99993156690846 0  7.002988390058432 21.9999522894974 0  8.001474486519555 21.99997554766986 0  9 22 0  -9 24 0  -8.001256391463743 24.00005628400386 0  -7.002546812041342 24.00011625013543 0  -6.003906245892446 24.00018373385277 0  -5.005371545151956 24.00026288631445 0  -4.005436715536174 23.99970146649758 0  -3.005372447819971 23.99913952335129 0  -2.003491704598691 23.99916497923246 0  -1.001706850090042 23.99917646763174 0  3.059137061265059e-05 23.99917460846486 0  1.001767785263448 23.99915943445404 0  2.003551877052639 23.9991303934251 0  3.005431282811959 23.99908634411672 0  4.005493555195679 23.99965634924165 0  5.005427091262598 24.00022668058903 0  6.003948606833439 24.00015742299183 0  7.002575372291081 24.00009911112027 0  8.001270762181477 24.00004783519186 0  9 24 0  -9 26 0  -8.000920576884809 26.00011254950815 0  -7.001865967800073 26.0002303184992 0  -6.002861655018808 26.00035868277217 0  -5.003934360998841 26.0005033393741 0  -4.003982383217131 25.99969344070842 0  -3.003935991649619 25.9988831498546 0  -2.002557546979018 25.99892672495225 0  -1.00124920114497 25.99894988753671 0  2.42940774161013e-05 25.99895337609415 0  1.001297294145356 25.99893732009435 0  2.002604134595744 25.99890123873097 0  3.003980002195574 25.99884404114083 0  4.004023298366497 25.99966043974757 0  5.003973337962128 26.00047701470278 0  6.002892024128075 26.00033949819121 0  7.00188674016027 26.00021779482832 0  8.000931115238114 26.00010636736143 0  9 26 0  -9 28 0  -8.00048479633039 28.00014794971289 0  -7.000982643846666 28.0003020128617 0  -6.001506964156006 28.00046846149646 0  -5.002071785814813 28.00065388897366 0  -4.002098069733274 27.99968385822357 0  -3.002074379392281 27.99871363288785 0  -2.001344990160287 27.99876991977977 0  -1.0006530532372 27.99880179910329 0  2.006682439504897e-05 27.99881011582423 0  1.000692533455076 27.99879509177684 0  2.001382487708022 27.99875632607418 0  3.002108498696848 27.99869279404865 0  4.002128431918481 27.99966636334742 0  5.002099831098789 28.00064002469757 0  6.001529418626217 28.00045833699372 0  7.000998275521157 28.00029539315479 0  8.000492806190445 28.00014467
[...]
<PointData  Vectors="f_44-0"> 
<DataArray  type="Float64"  Name="f_44-0"  NumberOfComponents="3" format="ascii">0.0000000000000000e+00 0.0000000000000000e+00 0.0000000000000000e+00  2.5786978218222671e-08 -2.4930133162171360e+00 0.0000000000000000e+00  1.0996551731220751e-07 -2.4616629880379843e+00 0.0000000000000000e+00  2.2669579171240123e-07 -2.1809448306754282e+00 0.0000000000000000e+00  0.0000000000000000e+00 0.0000000000000000e+00 0.0000000000000000e+00  0.0000000000000000e+00 0.0000000000000000e+00 0.0000000000000000e+00  0.0000000000000000e+00 0.0000000000000000e+00 0.0000000000000000e+00  0.0000000000000000e+00 0.0000000000000000e+00 0.0000000000000000e+00  0.0000000000000000e+00 0.0000000000000000e+00 0.0000000000000000e+00  0.0000000000000000e+00 0.0000000000000000e+00 0.0000000000000000e+00  0.0000000000000000e+00 0.0000000000000000e+00 0.0000000000000000e+00  0.0000000000000000e+00 0.0000000000000000e+00 0.0000000000000000e+00  0.0000000000000000e+00 0.0000000000000000e+00 0.0000000000000000e+00  0.0000000000000000e+00 0.0000000000000000e+00 0.0000000000000000e+00  0.0000000000000000e+00 0.0000000000000000e+00 0.0000000000000000e+00  2.7060247360080196e-08 -2.5015514328189252e+00 0.0000000000000000e+00  1.1100221101079243e-07 -2.4694981823205526e+00 0.0000000000000000e+00  2.2615508412363737e-07 -2.1866627972765622e+00 0.0000000000000000e+00  0.0000000000000000e+00 0.0000000000000000e+00 0.0000000000000000e+00  0.0000000000000000e+00 0.0000000000000000e+00 0.0000000000000000e+00  -8.5609326160638818e-04 -2.2970574710344054e+00 0.0000000000000000e+00  3.4815505629617570e-03 -2.4566430149867808e+00 0.0000000000000000e+00  1.7660125685590441e-02 -2.3050844613610688e+00 0.0000000000000000e+00  1.0847259479635349e-03 -4.2390059126825089e-04 0.0000000000000000e+00  1.2378380845773842e-03 -8.2086059913917943e-04 0.0000000000000000e+00  6.9242446341208287e-04 -4.7418359786985414e-04 0.0000000000000000e+00  5.3470665390014846e-04 7.6592587569319589e-05 0.0000000000000000e+00  3.0496265612386031e-04 3.8226380875490092e-04 0.0000000000000000e+00  1.0275798891026382e-04 3.1948102671577145e-04 0.0000000000000000e+00  -1.0527154986644876e-04 8.6036629030316402e-06 0.0000000000000000e+00  -2.5502808935739092e-04 -4.0328957190396714e-04 0.0000000000000000e+00  -4.5476418089650733e-04 -1.0240638401848715e-03 0.0000000000000000e+00  -7.3287876250825604e-04 -1.1790234862422283e-03 0.0000000000000000e+00  -1.2129025133900413e-03 -1.9655742373856405e-03 0.0000000000000000e+00  -8.3321174469508440e-04 -2.3041911850388526e+00 0.0000000000000000e+00  3.7381136897008081e-03 -2.4643876410259220e+00 0.0000000000000000e+00  1.7865903391095797e-02 -2.3124127713560432e+00 0.0000000000000000e+00  0.0000000000000000e+00 0.0000000000000000e+00 0.0000000000000000e+00  0.0000000000000000e+00 0.0000000000000000e+00 0.0000000000000000e+00  8.1860026532055395e-03 -2.3053436581652615e+00 0.0000000000000000e+00  -2.0798800536171234e-03 -2.4473130245312915e+00 0.0000000000000000e+00  8.1762264098640611e-03 -2.3073110277828657e+00 0.0000000000000000e+00  -1.1550934634253706e-03 -1.7614894066530450e-03 0.0000000000000000e+00  -8.0777048735795309e-05 -1.2258725393129446e-04 0.0000000000000000e+00  1.9163782109756389e-04 1.2292365064666662e-03 0.0000000000000000e+00  1.2152050324569673e-04 1.3808394426356109e-03 0.0000000000000000e+00  -2.4964090219266132e-04 6.5753335676869474e-04 0.0000000000000000e+00  -4.1277466833379041e-04 -3.6343034759456328e-05 0.0000000000000000e+00  -3.4791627059315534e-04 -1.6590623889031284e-04 0.0000000000000000e+00  1.9735015619344411e-04 -6.8188682565770110e-04 0.0000000000000000e+00  3.0827501094326810e-04 -1.2681882231105645e-03 0.0000000000000000e+00  9.7271169691986304e-05 -7.7026490507908741e-04 0.0000000000000000e+00  -1.7496981146415859e-04 -1.1826593282292550e-04 0.0000000000000000e+00  8.4964610188498369e-03 -2.3123119455612908e+00 0.0000000000000000e+00  -1.9345275218290228e-03 -2.4544564246848677e+00 0.0000000000000000e+00  8.0177396392241054e-03 -2.3143447890136684e+00 0.0000000000000000e+00  0.0000000000000000e+00 0.0000000000000000e+00 0.0000000000000000e+00  0.0000000000000000e+00 0.0000000000000000e+00 0.0000000000000000e+00  7.6409437116859158e-03 -2.3068865765970203e+00 0.0000000000000000e+00  -2.1621215407481862e-03 -2.4483059074962479e+00 0.0000000000000000e+00  7.7768512707139491e-03 -2.3068838476449294e+00 0.0000000000000000e+00  -2.4960651018570488e-03 1.0812884167478408e-03 0.0000000000000000e+00  -1.1641742137021348e-03 3.3245269156682343e-03 0.0000000000000000e+00  -1.0285562332730195e-03 2.8590554695514798e-03 0.0000000000000000e+00  -1.8282165113523866e-03 -5.6803547420039720e-04 0.0000000000000000e+00  -1.1586852477022175e-03 -2.0944429182434736e-03 0.0000000000000000e+00  -1.7527867169798075e-04 -9.7914885455009084e-04 0.0000000000000000e+00  5.7729126163023675e-04 -3.9906905948806833e-04 0.0000000000000000e+00  3.7155458056987100e-04 -3.3057587755281877e-04 0.0000000000000000e+00  7.8656231691938622e-04 -1.5547458239752572e-04 0.0000000000000000e+00  1.4026088121767617e-03 -2.1740488176701326e-03 0.0000000000000000e+00  3.3725493524756146e-04 -4.2110192726232034e-03 0.0000000000000000e+00  9.5562974325445194e-03 -2.3131403230124756e+00 0.0000000000000000e+00  -1.1264134732273184e-03 -2.4541428627276880e+00 0.0000000000000000e+00  7.8493778599520968e-03 -2.3122456599395194e+00 0.0000000000000000e+00  0.0000000000000000e+00 0.0000000000000000e+00 0.0000000000000000e+00  0.0000000000000000e+00 0.0000000000000000e+00 0.0000000000000000e+00  6.8367516853469531e-03 -2.3063385058801078e+00 0.0000000000000000e+00  -3.5500053181557272e-03 -2.4488767213452305e+00 0.0000000000000000e+00  5.0588817101013678e-03 -2.3089485993241525e+00 0.0000000000000000e+00  -9.4574288064089834e-03 -2.8196332458960338e-03 0.0000000000000000e+00  -1.0737994200609911e-02 1.5809608007298587e-03 0.0000000000000000e+00  -3.6292568574744573e-03 -4.0289240540344069e-03 0.0000000000000000e+00  -3.5281113131072953e-03 -7.6828205769582615e-03 0.0000000000000000e+00  3.3028112816108003e-04 -4.0104877948396993e-03 0.0000000000000000e+00  1.5773712085287354e-03 -3.3789940731717432e-03 0.0000000000000000e+00  3.8326380353861543e-03 -7.0184848671373829e-03 0.0000000000000000e+00  3.5721558686301821e-03 -1.0809816510067454e-03 0.0000000000000000e+00  1.3352339651271469e-02 -4.6445673222559941e-03 0.0000000000000000e+00  1.4368574258164441e-02 -1.2144310206311562e-02 0.0000000000000000e+00  9.1611949212415961e-03 -1.1731272623358349e-02 0.0000000000000000e+00  1.0967719515880301e-02 -2.3119110393635212e+00 0.0000000000000000e+00  3.0305423799923103e-04 -2.4521880467422772e+00 0.0000000000000000e+00  8.5001046048494688e-03 -2.3098899842799048e+00 0.0000000000000000e+00  0.0000000000000000e+00 0.0000000000000000e+00 0.0000000000000000e+00  0.0000000000000000e+00 0.0000000000000000e+00 0.0000000000000000e+00  5.2187179208700715e-03 -2.3020281716067741e+00 0.0000000000000000e+00  -8.1632360010107912e-03 -2.4442402313751646e+00 0.0000000000000000e+00  -4.9794248978707436e-03 -2.3037516415063322e+00 0.0000000000000000e+00  -4.2876301985819945e-02 1.2744742088757302e-02 0.0000000000000000e+00  -3.2978590957242412e-02 9.3984195150679656e-03 0.0000000000000000e+00  -1.8274568451003861e-02 6.6277911201698871e-03 0.0000000000000000e+00  4.7363941248701556e-04 -1.4352650655454144e-02 0.0000000000000000e+00  1.0133093447808595e-03 -5.7197913617790122e-03 0.0000000000000000e+00  3.6397063771268874e-03 -4.1301935939360010e-03 0.0000000000000000e+00  5.9964647785412210e-03 -4.3985792234041299e-03 0.0000000000000000e+00  5.8733096739188679e-03 -4.8798384619261866e-03 0.0000000000000000e+00  2.8462083917669516e-02 -7.4700513067278871e-03 0.0000000000000000e+00  3.4538249976308631e-02 -1.5454177907666927e-02 0.0000000000000000e+00  3.6456160091121369e-02 -1.9901483572875689e-02 0.0000000000000000e+00  1.6810230565031548e-02 -2.3090029649022479e+00 0.0000000000000000e+00  2.7411118987629877e-03 -2.4479864359550607e+00 0.0000000000000000e+00  9.4250668425583106e-03 -2.3055569223258630e+00 0.0000000000000000e+00  0.0000000000000000e+00 0.0000000000000000e+00 0.0000000000000000e+00  0.0000000000000000e+00 0.0000000000000000e+00 0.0000000000000000e+00  4.1258753101766250e-03 -2.2940211766666252e+00 0.0000000000000000e+00  -1.0615400458547286e-02 -2.4362178540765562e+00 0.0000000000000000e+00  -4.9646381583523238e-03 -2.2977255518241457e+00 0.0000000000000000e+00  -2.8512934695150254e-02 5.2815689314493789e-03 0.0000000000000000e+00  -3.5517829288691773e-02 1.0797903677798737e-02 0.0000000000000000e+00  -4.6305435370355669e-02 2.5439964020378691e-02 0.0000000000000000e+00  -1.8657989067911596e-02 -2.2440584536443237e-02 0.0000000000000000e+00  -6.8644723640782050e-03 -2.3900175382177768e-02 0.0000000000000000e+00  2.1629540938299090e-03 -2.2560361262733798e-02 0.0000000000000000e+00  9.1575843618847338e-03 -2.2081269773799105e-02 0.0000000000000000e+00  1.1476014732987778e-02 -2.1267870924334221e-02 0.0000000000000000e+00  2.2176228738816427e-02 -9.6348851029353349e-03 0.0000000000000000e+00  3.1809936787192843e-02 -1.0708124229987986e-02 0.0000000000000000e+00  4.0166119033216686e-02 -6.5819866964078044e-03 0.0000000000000000e+00  2.2299655589597133e-02 -2.3038055665425246e+00 0.0000000000000000e+00  4.6216591927956512e-03 -2.4409931910602478e+00 0.0000000000000000e+00  1.0240663563765672e-02 -2.2984657222317231e+00 0.0000000000000000e+00  0.0000000000000000e+00 0.0000000000000000e+00 0.0000000000000000e+00  0.0000000000000000e+00 0.0000000000000000e+00 0.0000000000000000e+00  2.9347536381164217e-03 -2.2820604428110065e+00 0.0000000000000000e+00  -1.3669365795322937e-02 -2.4243810567709150e+00 0.0000000000000000e+00  -9.9745301184622805e-03 -2.2864344525845310e+00 0.0000000000000000e+00  -1.3799313112333622e-02 -4.9311665453674472e-03 0.0000000000000000e+00  -1.8432362785935109e-02 -2.1891557657397584e-03 0.0000000000000000e+00  -2.0960563899582868e-02 -5.2518168142910446e-03 0.0000000000000000e+00  -1.5254472748450229e-02 -3.7161711197586808e-02 0.0000000000000000e+00  -6.5350392357878271e-03 -4.0042228234434103e-02 0.0000000000000000e+00  1.8644128298368084e-03 -3.9856331103056267e-02 0.0000000000000000e+00  1.0226397066227815e-02 -3.9175937987642885e-02 0.0000000000000000e+00  1.7277314662952608e-02 -3.5358965276600977e-02 0.0000000000000000e+00  1.5216954830088147e-02 2.2952014110714709e-03 0.0000000000000000e+00  1.9691658519868396e-02 -4.7074947627554717e-04 0.0000000000000000e+00  2.2150240820714203e-02 -5.4197991709597952e-03 0.0000000000000000e+00  2.5045166446459051e-02 -2.2925742302667289e+00 0.0000000000000000e+00  7.8920984280136785e-03 -2.4310621486520527e+00 0.0000000000000000e+00  1.1415141864227100e-02 -2.2879496260574346e+00 0.0000000000000000e+00  0.0000000000000000e+00 0.0000000000000000e+00 0.0000000000000000e+00  0.0000000000000000e+00 0.0000000000000000e+00 0.0000000000000000e+00  1.6303651266781417e-03 -2.2658024180330951e+00 0.0000000000000000e+00  -1.6942663368385867e-02 -2.4081881625534489e+00 0.0000000000000000e+00  -1.4846543331818915e-02 -2.2700720420688523e+00 0.0000000000000000e+00  -9.3409793488883099e-03 -1.2929341003212341e-02 0.0000000000000000e+00  -1.3149244570268705e-02 -1.0407886275815379e-02 0.0000000000000000e+00  -1.6411310938239599e-02 -7.4431042119289751e-03 0.0000000000000000e+00  -2.0136263223197767e-02 -5.6820482320659615e-02 0.0000000000000000e+00  -9.4273760801853648e-03 -5.8989366540658748e-02 0.0000000000000000e+00  1.8424610164034427e-03 -5.9882892149494445e-02 0.0000000000000000e+00  1.2891740580517293e-02 -5.9618133829742716e-02 0.0000000000000000e+00  2.2330600769716501e-02 -5.5806809179376714e-02 0.0000000000000000e+00  1.0225378212070414e-02 8.8907210131093928e-03 0.0000000000000000e+00  1.3616365785546758e-02 5.6141968679645701e-03 0.0000000000000000e+00  1.6654874568422750e-02 3.7578658861180721e-03 0.0000000000000000e+00  2.9242744434334996e-02 -2.2770892569445809e+00 0.0000000000000000e+00  1.1443194121038013e-02 -2.4164610198684677e+00 0.0000000000000000e+00  1.2787909609255767e-02 -2.2730947168876741e+00 0.0000000000000000e+00  0.0000000000000000e+00 0.0000000000000000e+00 0.0000000000000000e+00  0.0000000000000000e+00 0.0000000000000000e+00 0.0000000000000000e+00  4.8815344732131959e-04 -2.2456305359172761e+00 0.0000000000000000e+00  -1.9664010459730718e-02 -2.3879658921363593e+00 0.0000000000000000e+00  -1.9225195869552753e-02 -2.2487934269679060e+00 0.0000000000000000e+00  -8.7666330911850519e-03 -1.6486621303676723e-02 0.0000000000000000e+00  -1.1126031481733601e-02 -1.4345231179797135e-02 0.0000000000000000e+00  -1.2076950941095389e-02 -1.2874662549529610e-02 0.0000000000000000e+00  -2.3949442813398971e-02 -8.3916356425676880e-02 0.0000000000000000e+00  -1.1986273844161998e-02 -8.4027322868683862e-02 0.0000000000000000e+00  1.4627844038370039e-03 -8.4584923623798006e-02 0.0000000000000000e+00  1.4664847727411653e-02 -8.4871956814840097e-02 0.0000000000000000e+00  2.6175858540953761e-02 -8.2360023259318474e-02 0.0000000000000000e+00  9.9539316657124254e-03 1.2206278203430438e-02 0.0000000000000000e+00  1.2309133783593995e-02 1.0125003881738648e-02 0.0000000000000000e+00  1.3311096192559798e-02 8.5852790655199483e-03 0.0000000000000000e+00  3.3630365422475710e-02 -2.2557229179807829e+00 0.0000000000000000e+00  1.4874213157248867e-02 -2.3971417723469410e+00 0.0000000000000000e+00  1.4091686864740239e-02 -2.2537446880495793e+00 0.0000000000000000e+00  0.0000000000000000e+00 0.0000000000000000e+00 0.0000000000000000e+00  0.0000000000000000e+00 0.0000000000000000e+00 0.0000000000000000e+00  -1.7736794069326634e-04 -2.2228818174283296e+00 0.0000000000000000e+00  -2.1063837379310776e-02 -2.3650621382019081e+00 0.0000000000000000e+00  -2.1613802742642636e-02 -2.2241872426970537e+00 0.0000000000000000e+00  -9.5432305375102739e-03 -1.6783878463605423e-02 0.0000000000000000e+00  -1.0634581651342047e-02 -1.6258307139743661e-02 0.0000000000000000e+00  -1.0411438983515018e-02 -1.6267458403233265e-02 0.0000000000000000e+00  -2.5758524624859610e-02 -1.1482138943532680e-01 0.0000000000000000e+00  -1.3437938470613166e-02 -1.1259436235257970e-01 0.0000000000000000e+00  1.0349032521042112e-03 -1.1266153110592494e-01 0.0000000000000000e+00  1.5286852569224227e-02 -1.1348831762987259e-01 0.0000000000000000e+00  2.8144259032192309e-02 -1.1286693913135863e-01 0.0000000000000000e+00  1.1060578233933693e-02 1.2390841842289136e-02 0.0000000000000000e+00  1.2100006147168166e-02 1.1773845867132527e-02 0.0000000000000000e+00  1.1760873017193817e-02 1.1633365415347098e-02 0.0000000000000000e+00  3.5817300726574033e-02 -2.2304231056905457e+00 0.0000000000000000e+00  1.6777068589367960e-02 -2.3740899494543215e+00 0.0000000000000000e+00  1.4800340385711338e-02 -2.2309840480397143e+00 0.0000000000000000e+00  1.6512741971212702e-11 5.5422846774035036e-10 0.0000000000000000e+00  0.0000000000000000e+00 0.0000000000000000e+00 0.0000000000000000e+00  -1.4725306556806226e-04 -2.1996222439389856e+00 0.0000000000000000e+00  -2.0645020079572116e-02 -2.3415951119902458e+00 0.0000000000000000e+00  -2.1185442156815708e-02 -2.1987011726976622e+00 0.0000000000000000e+00  -1.0177163108903082e-02 -1.4762744246958065e-02 0.0000000000000000e+00  -1.0184988951819048e-02 -1.6042656897433498e-02 0.0000000000000000e+00  -8.9005180450293323e-03 -1.7729424527329486e-02 0.0000000000000000e+00  -2.4965908403787661e-02 -1.4639601138536287e-01 0.0000000000000000e+00  -1.3418357546989628e-02 -1.4194771681250637e-01 0.0000000000000000e+00  6.4283047652152455e-04 -1.4141155324598495e-01 0.0000000000000000e+00  1.4520736659886232e-02 -1.4276849898114485e-01 0.0000000000000000e+00  2.7476773126251547e-02 -1.4435755254756094e-01 0.0000000000000000e+00  1.1924006520087699e-02 1.0209199761645761e-02 0.0000000000000000e+00  1.1866163629151251e-02 1.1425710468279452e-02 0.0000000000000000e+00  1.0524375217906060e-02 1.3060865440504865e-02 0.0000000000000000e+00  3.5327649135153801e-02 -2.2039715364912023e+00 0.0000000000000000e+00  1.6757721875913838e-02 -2.3497059956995767e+00 0.0000000000000000e+00  1.4725937306841153e-02 -2.2069818466575790e+00 0.0000000000000000e+00  0.0000000000000000e+00 0.0000000000000000e+00 0.0000000000000000e+00  0.0000000000000000e+00 0.0000000000000000e+00 0.0000000000000000e+00  6.5348509113938541e-04 -2.1782395689453256e+00 0.0000000000000000e+00  -1.8285348923683713e-02 -2.3200011265380738e+00 0.0000000000000000e+00  -1.7735001289715568e-02 -2.1750810375483876e+00 0.0000000000000000e+00  -9.7987662078746988e-03 -1.1098342519034392e-02 0.0000000000000000e+00  -8.8699331556854489e-03 -1.4133319409306760e-02 0.0000000000000000e+00  -6.8512762635689036e-03 -1.7481556121205298e-02 0.0000000000000000e+00  -2.1381882730618060e-02 -1.7532587750623704e-01 0.0000000000000000e+00  -1.1833047355417963e-02 -1.6900417753322966e-01 0.0000000000000000e+00  3.3324418449202247e-04 -1.6786848961314266e-01 0.0000000000000000e+00  1.2346708404409448e-02 -1.6968209371753915e-01 0.0000000000000000e+00  2.4034248825695798e-02 -1.7348955829936882e-01 0.0000000000000000e+00  1.1717989359399978e-02 6.4249160942582229e-03 0.0000000000000000e+00  1.0722663229493026e-02 9.4198231353106489e-03 0.0000000000000000e+00  8.6399551953925124e-03 1.2720442445266057e-02 0.0000000000000000e+00  3.1923609100141498e-02 -2.1791567077322069e+00 0.0000000000000000e+00  1.4720144129855573e-02 -2.3265880481203061e+00 0.0000000000000000e+00  1.3837713061896868e-02 -2.1842663208375157e+00 0.0000000000000000e+00  0.0000000000000000e+00 0.0000000000000000e+00 0.0000000000000000e+00  0.0000000000000000e+00 0.0000000000000000e+00 0.0000000000000000e+00  2.1721495635532444e-03 -2.1610397266805288e+00 0.0000000000000000e+00  -1.4172873525446520e-02 -2.3026235626522413e+00 0.0000000000000000e+00  -1.1539411574862006e-02 -2.1559285358777114e+00 0.0000000000000000e+00  -8.0977515315586463e-03 -6.4634190079603119e-03 0.0000000000000000e+00  -6.4178616189498596e-03 -1.0951531442487176e-02 0.0000000000000000e+00  -3.9528088663959571e-03 -1.5649948079346287e-02 0.0000000000000000e+00  -1.5342926501009603e-02 -1.9847825403224811e-01 0.0000000000000000e+00  -8.8546060472917496e-03 -1.9084628831367878e-01 0.0000000000000000e+00  1.1212194661232758e-04 -1.8919106392384621e-01 0.0000000000000000e+00  8.9460710034528820e-03 -1.9133610013263633e-01 0.0000000000000000e+00  1.8105753098719066e-02 -1.9709414993500873e-01 0.0000000000000000e+00  1.0140467194960878e-02 1.6959874556178810e-03 0.0000000000000000e+00  8.3904995788270167e-03 6.1590230586151340e-03 0.0000000000000000e+00  5.8605906083004583e-03 1.0826876137207233e-02 0.0000000000000000e+00  2.5875522637598371e-02 -2.1586733385908370e+00 0.0000000000000000e+00  1.0855070465188844e-02 -2.3072339993876123e+00 0.0000000000000000e+00  1.2223518471112981e-02 -2.1652835903185763e+00 0.0000000000000000e+00  0.0000000000000000e+00 0.0000000000000000e+00 0.0000000000000000e+00  0.0000000000000000e+00 0.0000000000000000e+00 0.0000000000000000e+00  4.2562922358374382e-03 -2.1499205671590147e+00 0.0000000000000000e+00  -8.7305162574062966e-03 -2.2913845418198697e+00 0.0000000000000000e+00  -3.2454351774815330e-03 -2.1433695849193990e+00 0.0000000000000000e+00  -5.2021190464635724e-03 -1.4590778853522987e-03 0.0000000000000000e+00  -2.9742484937291367e-03 -6.9118129575352809e-03 0.0000000000000000e+00  -3.3608327313431669e-04 -1.2471174354550526e-02 0.0000000000000000e+00  -7.4947160069012073e-03 -2.1334865709511855e-01 0.0000000000000000e+00  -4.8241948857351297e-03 -2.0510153986608656e-01 0.0000000000000000e+00  -2.0716207145305791e-05 -2.0306198719623550e-01 0.0000000000000000e+00  4.6580913738158850e-03 -2.0537112245084982e-01 0.0000000000000000e+00  1.0311274656293704e-02 -2.1259200018029320e-01 0.0000000000000000e+00  7.3193353644650143e-03 -3.3764516997724088e-03 0.0000000000000000e+00  5.0212710151035242e-03 2.0650113926646741e-03 0.00000000